# vtk DataFile Version 3.0

ASCII

DATASET UNSTRUCTURED_GRID
FIELD FieldData 1
TIME 1 1 double
0.0
POINTS 1024 float
-2.0 0.0 0.0
-1.8709677419354838 0.0 0.0
-1.8709677419354838 0.03225806451612903 0.0
-2.0 0.03225806451612903 0.0
-1.7419354838709677 0.0 0.0
-1.7419354838709677 0.03225806451612903 0.0
-1.6129032258064515 0.0 0.0
-1.6129032258064515 0.03225806451612903 0.0
-1.4838709677419355 0.0 0.0
-1.4838709677419355 0.03225806451612903 0.0
-1.3548387096774193 0.0 0.0
-1.3548387096774193 0.03225806451612903 0.0
-1.2258064516129032 0.0 0.0
-1.2258064516129032 0.03225806451612903 0.0
-1.096774193548387 0.0 0.0
-1.096774193548387 0.03225806451612903 0.0
-0.967741935483871 0.0 0.0
-0.967741935483871 0.03225806451612903 0.0
-0.8387096774193549 0.0 0.0
-0.8387096774193549 0.03225806451612903 0.0
-0.7096774193548387 0.0 0.0
-0.7096774193548387 0.03225806451612903 0.0
-0.5806451612903226 0.0 0.0
-0.5806451612903226 0.03225806451612903 0.0
-0.45161290322580644 0.0 0.0
-0.45161290322580644 0.03225806451612903 0.0
-0.3225806451612903 0.0 0.0
-0.3225806451612903 0.03225806451612903 0.0
-0.1935483870967742 0.0 0.0
-0.1935483870967742 0.03225806451612903 0.0
-0.06451612903225806 0.0 0.0
-0.06451612903225806 0.03225806451612903 0.0
0.06451612903225806 0.0 0.0
0.06451612903225806 0.03225806451612903 0.0
0.1935483870967742 0.0 0.0
0.1935483870967742 0.03225806451612903 0.0
0.3225806451612903 0.0 0.0
0.3225806451612903 0.03225806451612903 0.0
0.45161290322580644 0.0 0.0
0.45161290322580644 0.03225806451612903 0.0
0.5806451612903226 0.0 0.0
0.5806451612903226 0.03225806451612903 0.0
0.7096774193548387 0.0 0.0
0.7096774193548387 0.03225806451612903 0.0
0.8387096774193549 0.0 0.0
0.8387096774193549 0.03225806451612903 0.0
0.967741935483871 0.0 0.0
0.967741935483871 0.03225806451612903 0.0
1.096774193548387 0.0 0.0
1.096774193548387 0.03225806451612903 0.0
1.2258064516129032 0.0 0.0
1.2258064516129032 0.03225806451612903 0.0
1.3548387096774193 0.0 0.0
1.3548387096774193 0.03225806451612903 0.0
1.4838709677419355 0.0 0.0
1.4838709677419355 0.03225806451612903 0.0
1.6129032258064515 0.0 0.0
1.6129032258064515 0.03225806451612903 0.0
1.7419354838709677 0.0 0.0
1.7419354838709677 0.03225806451612903 0.0
1.8709677419354838 0.0 0.0
1.8709677419354838 0.03225806451612903 0.0
2.0 0.0 0.0
2.0 0.03225806451612903 0.0
-1.8709677419354838 0.06451612903225806 0.0
-2.0 0.06451612903225806 0.0
-1.7419354838709677 0.06451612903225806 0.0
-1.6129032258064515 0.06451612903225806 0.0
-1.4838709677419355 0.06451612903225806 0.0
-1.3548387096774193 0.06451612903225806 0.0
-1.2258064516129032 0.06451612903225806 0.0
-1.096774193548387 0.06451612903225806 0.0
-0.967741935483871 0.06451612903225806 0.0
-0.8387096774193549 0.06451612903225806 0.0
-0.7096774193548387 0.06451612903225806 0.0
-0.5806451612903226 0.06451612903225806 0.0
-0.45161290322580644 0.06451612903225806 0.0
-0.3225806451612903 0.06451612903225806 0.0
-0.1935483870967742 0.06451612903225806 0.0
-0.06451612903225806 0.06451612903225806 0.0
0.06451612903225806 0.06451612903225806 0.0
0.1935483870967742 0.06451612903225806 0.0
0.3225806451612903 0.06451612903225806 0.0
0.45161290322580644 0.06451612903225806 0.0
0.5806451612903226 0.06451612903225806 0.0
0.7096774193548387 0.06451612903225806 0.0
0.8387096774193549 0.06451612903225806 0.0
0.967741935483871 0.06451612903225806 0.0
1.096774193548387 0.06451612903225806 0.0
1.2258064516129032 0.06451612903225806 0.0
1.3548387096774193 0.06451612903225806 0.0
1.4838709677419355 0.06451612903225806 0.0
1.6129032258064515 0.06451612903225806 0.0
1.7419354838709677 0.06451612903225806 0.0
1.8709677419354838 0.06451612903225806 0.0
2.0 0.06451612903225806 0.0
-1.8709677419354838 0.0967741935483871 0.0
-2.0 0.0967741935483871 0.0
-1.7419354838709677 0.0967741935483871 0.0
-1.6129032258064515 0.0967741935483871 0.0
-1.4838709677419355 0.0967741935483871 0.0
-1.3548387096774193 0.0967741935483871 0.0
-1.2258064516129032 0.0967741935483871 0.0
-1.096774193548387 0.0967741935483871 0.0
-0.967741935483871 0.0967741935483871 0.0
-0.8387096774193549 0.0967741935483871 0.0
-0.7096774193548387 0.0967741935483871 0.0
-0.5806451612903226 0.0967741935483871 0.0
-0.45161290322580644 0.0967741935483871 0.0
-0.3225806451612903 0.0967741935483871 0.0
-0.1935483870967742 0.0967741935483871 0.0
-0.06451612903225806 0.0967741935483871 0.0
0.06451612903225806 0.0967741935483871 0.0
0.1935483870967742 0.0967741935483871 0.0
0.3225806451612903 0.0967741935483871 0.0
0.45161290322580644 0.0967741935483871 0.0
0.5806451612903226 0.0967741935483871 0.0
0.7096774193548387 0.0967741935483871 0.0
0.8387096774193549 0.0967741935483871 0.0
0.967741935483871 0.0967741935483871 0.0
1.096774193548387 0.0967741935483871 0.0
1.2258064516129032 0.0967741935483871 0.0
1.3548387096774193 0.0967741935483871 0.0
1.4838709677419355 0.0967741935483871 0.0
1.6129032258064515 0.0967741935483871 0.0
1.7419354838709677 0.0967741935483871 0.0
1.8709677419354838 0.0967741935483871 0.0
2.0 0.0967741935483871 0.0
-1.8709677419354838 0.12903225806451613 0.0
-2.0 0.12903225806451613 0.0
-1.7419354838709677 0.12903225806451613 0.0
-1.6129032258064515 0.12903225806451613 0.0
-1.4838709677419355 0.12903225806451613 0.0
-1.3548387096774193 0.12903225806451613 0.0
-1.2258064516129032 0.12903225806451613 0.0
-1.096774193548387 0.12903225806451613 0.0
-0.967741935483871 0.12903225806451613 0.0
-0.8387096774193549 0.12903225806451613 0.0
-0.7096774193548387 0.12903225806451613 0.0
-0.5806451612903226 0.12903225806451613 0.0
-0.45161290322580644 0.12903225806451613 0.0
-0.3225806451612903 0.12903225806451613 0.0
-0.1935483870967742 0.12903225806451613 0.0
-0.06451612903225806 0.12903225806451613 0.0
0.06451612903225806 0.12903225806451613 0.0
0.1935483870967742 0.12903225806451613 0.0
0.3225806451612903 0.12903225806451613 0.0
0.45161290322580644 0.12903225806451613 0.0
0.5806451612903226 0.12903225806451613 0.0
0.7096774193548387 0.12903225806451613 0.0
0.8387096774193549 0.12903225806451613 0.0
0.967741935483871 0.12903225806451613 0.0
1.096774193548387 0.12903225806451613 0.0
1.2258064516129032 0.12903225806451613 0.0
1.3548387096774193 0.12903225806451613 0.0
1.4838709677419355 0.12903225806451613 0.0
1.6129032258064515 0.12903225806451613 0.0
1.7419354838709677 0.12903225806451613 0.0
1.8709677419354838 0.12903225806451613 0.0
2.0 0.12903225806451613 0.0
-1.8709677419354838 0.16129032258064516 0.0
-2.0 0.16129032258064516 0.0
-1.7419354838709677 0.16129032258064516 0.0
-1.6129032258064515 0.16129032258064516 0.0
-1.4838709677419355 0.16129032258064516 0.0
-1.3548387096774193 0.16129032258064516 0.0
-1.2258064516129032 0.16129032258064516 0.0
-1.096774193548387 0.16129032258064516 0.0
-0.967741935483871 0.16129032258064516 0.0
-0.8387096774193549 0.16129032258064516 0.0
-0.7096774193548387 0.16129032258064516 0.0
-0.5806451612903226 0.16129032258064516 0.0
-0.45161290322580644 0.16129032258064516 0.0
-0.3225806451612903 0.16129032258064516 0.0
-0.1935483870967742 0.16129032258064516 0.0
-0.06451612903225806 0.16129032258064516 0.0
0.06451612903225806 0.16129032258064516 0.0
0.1935483870967742 0.16129032258064516 0.0
0.3225806451612903 0.16129032258064516 0.0
0.45161290322580644 0.16129032258064516 0.0
0.5806451612903226 0.16129032258064516 0.0
0.7096774193548387 0.16129032258064516 0.0
0.8387096774193549 0.16129032258064516 0.0
0.967741935483871 0.16129032258064516 0.0
1.096774193548387 0.16129032258064516 0.0
1.2258064516129032 0.16129032258064516 0.0
1.3548387096774193 0.16129032258064516 0.0
1.4838709677419355 0.16129032258064516 0.0
1.6129032258064515 0.16129032258064516 0.0
1.7419354838709677 0.16129032258064516 0.0
1.8709677419354838 0.16129032258064516 0.0
2.0 0.16129032258064516 0.0
-1.8709677419354838 0.1935483870967742 0.0
-2.0 0.1935483870967742 0.0
-1.7419354838709677 0.1935483870967742 0.0
-1.6129032258064515 0.1935483870967742 0.0
-1.4838709677419355 0.1935483870967742 0.0
-1.3548387096774193 0.1935483870967742 0.0
-1.2258064516129032 0.1935483870967742 0.0
-1.096774193548387 0.1935483870967742 0.0
-0.967741935483871 0.1935483870967742 0.0
-0.8387096774193549 0.1935483870967742 0.0
-0.7096774193548387 0.1935483870967742 0.0
-0.5806451612903226 0.1935483870967742 0.0
-0.45161290322580644 0.1935483870967742 0.0
-0.3225806451612903 0.1935483870967742 0.0
-0.1935483870967742 0.1935483870967742 0.0
-0.06451612903225806 0.1935483870967742 0.0
0.06451612903225806 0.1935483870967742 0.0
0.1935483870967742 0.1935483870967742 0.0
0.3225806451612903 0.1935483870967742 0.0
0.45161290322580644 0.1935483870967742 0.0
0.5806451612903226 0.1935483870967742 0.0
0.7096774193548387 0.1935483870967742 0.0
0.8387096774193549 0.1935483870967742 0.0
0.967741935483871 0.1935483870967742 0.0
1.096774193548387 0.1935483870967742 0.0
1.2258064516129032 0.1935483870967742 0.0
1.3548387096774193 0.1935483870967742 0.0
1.4838709677419355 0.1935483870967742 0.0
1.6129032258064515 0.1935483870967742 0.0
1.7419354838709677 0.1935483870967742 0.0
1.8709677419354838 0.1935483870967742 0.0
2.0 0.1935483870967742 0.0
-1.8709677419354838 0.22580645161290322 0.0
-2.0 0.22580645161290322 0.0
-1.7419354838709677 0.22580645161290322 0.0
-1.6129032258064515 0.22580645161290322 0.0
-1.4838709677419355 0.22580645161290322 0.0
-1.3548387096774193 0.22580645161290322 0.0
-1.2258064516129032 0.22580645161290322 0.0
-1.096774193548387 0.22580645161290322 0.0
-0.967741935483871 0.22580645161290322 0.0
-0.8387096774193549 0.22580645161290322 0.0
-0.7096774193548387 0.22580645161290322 0.0
-0.5806451612903226 0.22580645161290322 0.0
-0.45161290322580644 0.22580645161290322 0.0
-0.3225806451612903 0.22580645161290322 0.0
-0.1935483870967742 0.22580645161290322 0.0
-0.06451612903225806 0.22580645161290322 0.0
0.06451612903225806 0.22580645161290322 0.0
0.1935483870967742 0.22580645161290322 0.0
0.3225806451612903 0.22580645161290322 0.0
0.45161290322580644 0.22580645161290322 0.0
0.5806451612903226 0.22580645161290322 0.0
[...]
POINT_DATA 1024
SCALARS pressure double
LOOKUP_TABLE default
0.007156695374783974
0.001284037542798366
-0.00012443215877291593
-0.0011447382269202861
0.0023350743711808308
-0.00016403645749289345
0.0016656011333863005
5.0651840097369e-5
0.0014969682340858295
0.00014097947567842545
0.0012243610233671264
0.00021813309318308413
0.0010159411036558678
0.0002637266252707936
0.0008294439988551596
0.0002926318524509818
0.0006770508917412491
0.0003081562105301368
0.0005538796100008481
0.0003143614767776047
0.0004579188162806862
0.00031336955942535313
0.0003852041993555144
0.00030667992537386713
0.0003315481185885046
0.0002952443627026057
0.0002923401149934386
0.000279714771586491
0.0002627495301798552
0.00026052280080598387
0.0002377380459113807
0.00023792387918349079
0.00021207251028961658
0.0002120004525796263
0.00018030740654270368
0.0001826469909769325
0.00013676260784035738
0.0001495469794337903
7.550467748513414e-5
0.00011215804789316776
-9.630093238799752e-6
6.972794523800263e-5
-0.0001249723582956285
2.13942503043243e-5
-0.0002766648559118746
-3.358055115855559e-5
-0.000470518642620392
-9.520473157706384e-5
-0.0007095549913820864
-0.00016199217899617546
-0.0009977038012804994
-0.00022841153484085038
-0.0013176172897083754
-0.0002859188742130429
-0.0017016311868014963
-0.00030822432959696117
-0.0019595611858101254
-0.00029667514244188277
-0.002688230630717198
-0.0001138469431493211
-0.001590784691773879
-0.00013491675614673383
-0.007556435266670965
0.000991150519445582
-0.0014322749948913634
-0.001799670555468672
-0.0009915414672059938
-0.0006641957520845397
-0.0003991707806244839
-0.00019682720140302057
-4.2277169412451226e-5
7.339280236017619e-5
0.00015789376657917586
0.00021682543421936896
0.0002545997340962391
0.0002748102188325892
0.00028056704744571946
0.00027467284280230066
0.000259718102287606
0.00023811797082819722
0.00021211544114085385
0.00018376527009155596
0.0001549109901096134
0.0001271698497901924
0.00010195065016923
8.054876682774668e-5
6.44002983183692e-5
5.56126994728756e-5
5.798960566336184e-5
7.857554850519935e-5
0.0001302912861339978
0.000232904192019601
0.00041878520206726404
0.0007090543742927039
0.0011727105562151536
0.0016115002010251408
-0.0055231510879269596
-0.006983365358344927
-0.004321387017143572
-0.0032963680695236204
-0.0024497694008802553
-0.0017560512570826813
-0.0011963333513718036
-0.0007522370936916796
-0.00040826429446596174
-0.0001506577973578068
3.30418889443722e-5
0.00015452090021540838
0.00022498985556074918
0.00025536621451123243
0.00025636312030887534
0.0002385240257214182
0.00021222383976061542
0.00018765181789250424
0.00017478788959666863
0.00018338710805660305
0.0002229963973833466
0.00030304846376572053
0.00043310913674471
0.0006234111005464909
0.0008858262460522134
0.0012355438766014355
0.0016931364816990362
0.002287650275499582
0.003054624871265113
0.004041982785461109
0.005260640473174099
0.006809620628024746
-0.013526193098372474
-0.016705536261047607
-0.010758452800385787
-0.008406909789992145
-0.0064257057749683094
-0.004780601701457334
-0.0034343578096428856
-0.0023533004168523374
-0.0015060408056428868
-0.0008631769122264276
-0.00039654439209120085
-7.874779107511748e-5
0.00011715530022357235
0.0002178265276699199
0.00024973217524486963
0.00023917387562136615
0.00021228756769782868
0.0001950248873636681
0.00021312839472547364
0.0002921146972649189
0.00045728908450535805
0.0007338348810524086
0.0011470544133152449
0.0017228846857740194
0.0024888696588471733
0.0034757519765135974
0.004719794061688299
0.00626500988683457
0.008164804343438893
0.010475683514565843
0.013256039769899232
0.016527190062697438
-0.026796204399568053
-0.03291754577445675
-0.021458935220357755
-0.016896685779383778
-0.013032596790808149
-0.009806066342953713
-0.007152988872293197
-0.005013464434304385
-0.0033299604915126933
-0.0020469930074709076
-0.0011102974795312382
-0.0004663547572231354
-6.207571066564457e-5
0.00015536403420091278
0.00023860386788589305
0.00024012473316552951
0.0002122454282142993
0.0002071022164752183
0.0002766225589481641
0.000472506264666237
0.000846236691127217
0.001449163682263785
0.002332733076613682
0.0035489839245751473
0.005151495215495364
0.0071969580234516155
0.009747501933199811
0.012873080100904183
0.01665323189540958
0.021171991396412113
0.02651502085768601
0.03273977516248935
-0.046641929350276355
-0.05715002912306435
-0.03746191988490247
-0.02959461991713628
-0.022914367607142872
-0.017322513176032197
-0.012714730517372387
-0.008992038190598173
-0.006057790643033007
-0.003817478719751003
-0.0021777778636961538
-0.001046081500697187
-0.00033018560999706586
6.186714039200155e-5
0.00022186072788117698
0.00024142751638207152
0.00021204155603207653
0.00022499613321824954
0.0003713756458576479
0.0007420341593274885
0.0014276019918839282
0.0025185600682138035
0.004105454396242569
0.006279368717914315
0.009132840191244287
0.01276140021706672
0.0172659381656842
0.022755186938062087
0.029348058752572837
0.03716847531966904
0.04634554492987893
0.0569718540794995
-0.0743815846432752
-0.0910298105619477
-0.05983396436304433
-0.04734620357653125
-0.03672926881620217
-0.027830561645786088
-0.020490009628891286
-0.014553985266865927
-0.009871190949285333
-0.006292537228561536
-0.0036700760174749676
-0.0018565426050531804
-0.0007050434601768108
-6.891140080889256e-5
0.00019836026973261235
0.000243134165398791
0.00021161881470071274
0.00024984390581465985
0.0005036300128055198
0.0011185639937229713
0.002239999869435585
0.004013122597198897
0.006583143743793385
0.010095744390601563
0.014697949388973973
0.020539638059349156
0.02777591519062897
0.036569855706110196
0.04709505479721954
0.05953218816058742
0.07406546442426248
0.09085302330328301
-0.11133089179598117
-0.13616045254810144
-0.08963525323466744
-0.07099299778358022
-0.0551321894205674
-0.041828347825255574
-0.030847389495814247
-0.02196293742513583
-0.014950903737206646
-0.009589474946660419
-0.0056579216051905
-0.0029361563728482875
-0.0012044275403538633
-0.00024318735490189833
0.00016696542003022112
0.00024529604937477813
0.0002109202591354515
0.0002827769961966091
0.0006795957434162654
0.0016198682835216376
0.003321842889363086
0.006003575619475023
0.009883103609937105
0.015178852584427156
0.022110459524717567
0.03090024729805819
0.04177558281494365
0.054971974934706604
0.07073569677414895
0.08932314903723462
0.11098985811754324
0.1359870655756732
-0.1588058980992501
-0.19415113027931838
-0.12792760114429036
-0.10137751472816293
-0.07877886103931946
-0.059814626677647344
-0.04415589892957965
-0.03148285811549342
-0.021477899613082108
-0.013825746727282553
-0.008212134172589173
-0.004323390209669484
-0.0018461390895325377
-0.0004671847226948219
0.00012653739613028672
0.0002479644111133701
0.00020988875891222113
0.00032492831779634587
0.0009054911136505743
0.002263743058783611
0.00471159459457367
0.008560737790908698
0.01412279377611984
0.021709679266075685
0.03163436584524375
0.04421231175060943
0.05976377068694147
0.07861736263607705
0.10111249851537332
0.12760317870775806
0.1584340791604418
0.19398431498920551
-0.2181224142281956
-0.266609586267882
-0.17577243693466818
-0.13934203512404253
-0.10832482498907722
-0.08228801274868225
-0.06078446030331981
-0.0433776337584868
-0.02963309563469475
-0.019118772397875277
-0.011403512064772173
-0.006056700047838259
-0.002647974148502841
-0.0007471258408159431
7.5937539341893e-5
0.00025119029349143676
0.00020846708915590333
0.00037743041224121864
0.0011875325517587082
0.00306797901123667
0.006447706881656981
0.01175540624769188
0.01941963842935608
0.029869156024826884
0.043533585587426635
0.06084480777096223
0.08223916574166912
0.1081616382985786
0.13906771216407682
0.17543365269893202
0.21771312992578834
0.2664536380878177
-0.29059618206236454
-0.3551438830246615
-0.23423127657215917
-0.1857289041989197
-0.14442568695595578
-0.109747167722821
-0.08110202983869781
-0.057911173796126585
-0.03959742418174419
-0.025585981557884663
-0.015302859520526265
-0.008174545089025138
-0.0036277303748394846
-0.0010892337383151727
1.402691463772499e-5
0.0002550245869443308
0.00020659791109545978
0.0004414158887979535
0.00153193710157559
0.004050368612197606
0.008568635500289142
0.01565838532414407
0.025891074080781035
0.03983823446382763
0.05807206724922272
0.08116675947335614
0.1097005228094108
0.1442605133173651
0.18544366855216937
0.23387604647032914
0.2901418362028717
0.35500449606819434
-0.37754284929331505
-0.4613619531969904
-0.30436559076358916
-0.2413804624777487
-0.18773705520405104
-0.14269075419241808
-0.10547756201586238
-0.07534738500684635
-0.05155181513606299
-0.033344801942314505
-0.019980979598389913
-0.010715383926975151
-0.004803205218260208
-0.001499731476257526
-6.033354984385676e-5
0.00025951803563462283
0.00020422378686501408
0.0005180173123763684
0.001944921793602648
0.005228704296406208
0.011112836093563585
0.020340479206399496
0.03365453729530322
0.05179786720222932
0.07551376303891565
0.10554720065581566
0.14264661596910194
0.18756972711372968
0.2410827056279901
0.30399178454690856
0.3770348005432843
0.46124642658806003
-0.4802779725126093
-0.5868716984895831
-0.38723683184145036
-0.30713906902965943
-0.23891455941343062
-0.1816174481519562
-0.13428001818385477
-0.09595017740768107
-0.06567719988369829
-0.04251266200768326
-0.0255086757315163
-0.013717675378339136
-0.006192196293841109
-0.001984842260243563
-0.00014828306748850592
0.0002647212522349325
0.0002012871825617533
0.0006083672370419213
0.0024327038051870074
0.006620778918459887
0.014118765176463913
0.025872493720209888
0.042827467653001765
0.06592901249128058
0.09612263587633985
0.1343551856520542
0.18157625582747403
0.2387450755284353
0.30682720424713583
0.38684227380282793
0.4797063826228649
0.5867891766248703
-0.6001170017665514
-0.7332809431575695
-0.48390642492594704
-0.38384710383936593
-0.29861385006040997
-0.22702593668806856
-0.16787836396724268
-0.11998346216794156
-0.08215450982845814
-0.053206989953431025
-0.031956751128704816
-0.017219878146907827
-0.007812501209808411
-0.0025507893714193314
-0.0002509609700368179
0.000270684726113945
0.00019773047345022802
0.0007135982032662469
0.0030015004281015016
0.008244385641258112
0.01762487987574486
0.03232523581644739
0.05352730684265717
0.08241263277665913
0.1201626574633333
0.16795978750520954
0.22698829006530122
0.2984424177422489
0.3835196021373794
0.4834888939743549
0.5994706505813241
0.7332426518714626
-0.7383752582096751
-0.9021974159754815
-0.5954357726377872
-0.4723469786303673
-0.3674906032849989
-0.2794149192225754
-0.2066415693270355
-0.14771115146980876
-0.101164676275171
-0.06554521365645936
-0.03939600873511596
-0.021260450795011158
-0.009681917547685234
-0.0032037961465471625
-0.0003695066940396957
0.0002774588281373962
0.00019349594792608717
0.0008348427448147574
0.00365752908788195
0.010117317983510603
0.021669638001994656
0.039769513666874895
0.06587149875388458
0.10142969478476167
0.14789780849940232
0.20673009910949208
0.27938160821729974
0.36731769083002747
0.4720024216703867
0.594993005506909
0.7376413130744791
0.902216891522603
-0.8963679007937729
-1.0952287123709803
-0.722886262517614
-0.57348114938466
-0.446200524595468
-0.3392831074538744
-0.25093860767054454
-0.1793971577598421
-0.12288862993338394
-0.07964476037181722
-0.04789725105777521
-0.025877851646717496
-0.011818242810215243
-0.00395008595380767
-0.0005050597736607082
0.0002850938139174828
0.0001885258084818751
0.000973233393907916
0.004407007358442396
0.012257369829610246
0.026291498057643106
0.0482761366238329
0.07997748933485908
0.12316116918654255
0.17959207819635165
0.2510352331879112
0.3392551450247326
0.44602692420672047
0.5731183049795077
0.7224159639447384
0.8955316214162007
1.095322001625592
-1.075409879709099
-1.3139822429589887
-0.8673192836891375
-0.688092132687513
-0.5353993526875551
-0.40712922501764304
-0.30113845486470264
-0.215305393024131
-0.14750730048352695
-0.09562305649143547
-0.05753128003479385
-0.03111053871937621
-0.014239274383667696
-0.0047958821779329
-0.000658759833872488
0.0002936398213488637
0.00018276217019345628
0.0011299026851988299
0.005256152973117389
0.01468233546541626
0.03152891927745345
0.05791591524949152
0.09596272654306263
0.14778803036701366
0.21550946381069938
0.301244322073404
0.4071078834284868
0.5352262554460586
0.6877100607660604
0.8668191532350447
1.0744542301836597
1.3141680445048611
-1.276815871799448
-1.5600651574628066
-1.0297962577432525
-0.8170225251295611
-0.6357428625263194
-0.4834520063422219
-0.35761008788527193
-0.2556997679231532
-0.17520161609326576
-0.1135975272882779
-0.06836889690335203
-0.03699696965337194
-0.016962809507934305
-0.0057474082059666256
-0.0008317465904904693
0.00030314686872050494
0.0001761470564868769
0.0013059831593163287
0.006211183846811371
0.017410009617390244
0.03742036168707008
0.06875966136834202
0.1139446603204739
0.17549125618764363
0.255913970026239
0.35772651696089003
0.48343885643070017
0.6355719462154671
0.8166207235899707
1.0292640522793295
1.2757209964898981
1.560364853615671
-1.501900191589967
-1.8350842311068691
-1.211378693566897
-0.9611150243785329
-0.7478868673787793
-0.5687501945126057
-0.42072248317532146
-0.30084419082371855
-0.2061525029315866
-0.1336855966736102
-0.08048090208150281
-0.04357560165861614
-0.02000664525200617
-0.006810887422352377
-0.0010251598551278436
0.0003136648433709521
0.0001686223912749303
0.001502607363452896
0.00727831809535887
0.02045818749857961
0.04400428618442135
0.08087818816279306
0.13404074262746885
0.20645182779979074
0.30106960821992923
0.4208509866757312
0.5687471472834956
0.747720397506913
0.9606936247817547
1.2108123616213793
1.5006426892768656
1.8355217268701258
-1.7519766678597766
-2.1406456933958435
-1.4131282816509128
-1.1212124477888128
-0.8724872196185016
-0.6635225376946011
-0.49084461474202107
-0.3510025667032398
-0.24054088468069104
-0.1560046869564044
-0.09393809506137611
-0.05088489146387482
-0.023388578496786105
-0.00799254320787901
-0.001240139541694818
0.0003252434903313499
0.00016012998882885897
0.0017209078540336255
0.00846377405823882
0.023844664875539656
0.05131915464949765
0.09434231032557223
0.15636842756117697
0.24085072958159937
0.35124039565378007
0.49098691613915085
0.6635318871944494
0.8723281638642262
1.1207724684452167
1.4125262377418604
1.7505285611639787
2.1412469306188036
-2.0283584784802473
-2.47835495108091
-1.6361070509468232
-1.2981577406589602
-1.0101998110233827
-0.7682677835750229
-0.5683454522524231
-0.4064387959520101
-0.27854768211179837
-0.18067221863382577
-0.10881127433126817
-0.058963295287127626
-0.027126405928877568
-0.009298598946349271
-0.0014778256836191868
0.00033793239414074255
0.00015061153881124645
0.001962017191909615
0.009773770325491888
0.027587238136218786
0.059403430071695455
0.10922284425643841
0.18104517150419042
0.27886894915550436
0.40669035437736445
0.5685035045571166
0.7682922486553206
1.0100519668376406
1.2977013951187728
1.6354687079040893
2.0266857333268087
2.479146832302402
-2.3323579256364066
-2.8498161471095607
-1.8813776243285596
-1.4927939581034224
-1.1616805746109302
-0.8834846703850174
-0.6535939592812775
-0.46741677283722566
-0.3203538126612282
-0.20780561013203375
-0.12517123729105914
-0.06784926879830162
-0.031237924037356753
-0.010735278035693348
-0.0017393584506646437
0.0003517809553489404
0.00014000858652344164
0.0022270679392464034
0.011214525764556607
0.03170370438471262
0.06829557674216284
0.1255906084108947
0.20818843352414806
0.32068747799342506
0.46768351039047046
0.653769965240104
0.8835274332654423
1.16154871544425
1.4923249969848025
1.8807044012822522
2.3304182808587632
2.85082449473564
-2.66528621667057
-3.2566312574937686
-2.150003602709347
-1.7059642033035116
-1.3275854927724051
-1.0096719143156556
-0.7469590930801708
-0.5342003841539887
-0.36614019048933627
-0.23752227776668006
-0.14308878032292288
-0.07758126715538322
-0.03574092914652955
-0.0123088039120316
-0.002025878177323799
0.0003668383650834103
0.00012826250957197332
0.0025171926527063496
0.012792259545610652
0.03621186151718251
0.07803406035791086
0.1435164234608641
0.23791567525077997
0.3664873112894966
0.534483890415984
0.7471555240509439
1.0097366449011007
1.327475531920532
1.7054882234932656
2.1493007031225857
2.6630261606021057
3.257876522640433
-3.0284532282033747
-3.7003985600536233
-2.443050125629142
-1.9385114823014802
-1.5085706142290614
-1.1473281870908743
-0.8488098036490012
-0.6070535056903045
-0.41608772557605567
-0.2699396349292685
-0.16263469846177234
-0.08819774482826394
-0.04065321736753659
-0.014025400055967158
-0.002338525391418586
0.0003831535682010724
0.00011531448519343682
0.0028335238700888505
0.014513191185720743
0.0411295084359013
0.08865734856545628
0.1630711135960981
0.27034436301565606
0.4164494526039298
0.607355525111976
0.8490294333815648
1.1474190637407768
1.5084898374675964
1.9380361022118096
2.4423296834918977
3.025803684226479
3.7018881464820095
-3.4231682611984713
-4.182707877550013
-2.761584399979753
-2.191278542290423
-1.7052920829303235
-1.2969521035359877
-0.9595150419357619
-0.6862400051405645
-0.4703773273083486
-0.3051750941279304
-0.18387978672078573
-0.0997371562635671
-0.04599258490317236
-0.015891290102004248
-0.002678440860949654
0.000400775229240786
0.00010110546532501672
0.003177194103222282
0.016383540519298495
0.04647444481650533
0.10020391004122503
0.18432550410974605
0.30559196208714606
0.4707549033816418
0.686562426205929
0.9597609431695677
1.2970737530484804
1.7052493329495946
2.1908132517235415
2.760869909757585
3.4200409427589027
4.184414890344313
-3.850741299305999
-4.705133458743942
-3.1066761083100447
-2.4651075992354023
-1.9184061083460686
-1.4590421693934126
-1.0794437353059183
-0.7720237225533209
-0.5291898920546191
-0.3433460589542373
-0.20689483550123416
-0.11223795357150965
-0.05177682711587999
-0.01791269760052855
-0.0030467656007957815
0.0004197516820807848
8.557612240072363e-5
0.003549335810897623
0.018409527975482575
0.05226447258039729
0.11271221916326368
0.20735043295503355
0.3437759609889613
0.5295847090423063
0.7723686632905891
1.0797194303122584
1.4591998003675215
1.9184123435285976
2.464663525213964
3.106009623984117
3.847025362903915
4.706961716485685
-4.312495858500525
-5.269198953888397
-3.479394733798473
-2.760841235867072
-2.148568823823801
-1.6340969763517124
-1.208964851145124
-0.8646685445630201
-0.5927063463905236
-0.384569954244401
-0.23175064747156945
-0.12573859532983145
-0.058023742145395865
-0.020095847103206933
-0.0034446410220663535
0.0004401309616145655
6.866694624084819e-5
0.003951081515491042
0.020597373856930806
0.05851739119314111
0.12622074060779834
0.23221671056232945
0.38501378834733935
0.5931197899035333
0.8650381010628361
1.2092738635816607
1.634295839721688
2.1486359584976817
2.7604310181401712
3.4788362640779718
4.30808568386578
5.2708311097679275
-4.809780114359187
-5.876346920599321
-3.8808044276830254
-3.079322994310762
-2.396435209799153
-1.8226149232402138
-1.3484470081523083
-0.9644381798023832
-0.6611074749230733
-0.42896412141315304
-0.25851797512589036
-0.1402775153908774
-0.0647511178994223
-0.022446960426328325
-0.0038732084171656657
0.00046196080303731435
5.031820582483098e-5
0.004383563893361061
0.022953301949130964
0.06525101601673436
0.1407679891908574
0.2589952677870333
0.4294231354649465
0.661541535569939
0.9648354947578193
1.3487943897496466
1.8228629897200717
2.396578566966948
3.0789675281712876
3.880434466594408
4.804622515312518
5.877067294487096
-5.3440965550107915
-6.5276367556240436
-4.311927487672755
-3.4214114704865053
-2.662657521426854
-2.0250968850610715
-1.4982593730987548
-1.0715971436009881
-0.7345745020046458
-0.4766462187328421
-0.28726774604289834
-0.15589323963913015
-0.07197677981833453
-0.024972270452259884
-0.004333610059245356
0.00048529011535669044
3.047238819223968e-5
0.004847918372606329
0.025483530274592357
0.07248311424864252
0.15639231777835355
0.2877566056256728
0.47712080846771543
0.7350294943787888
1.0720228486116357
1.4986450735981693
2.0253984752524152
2.6628743715430048
3.421155085075573