# vtk DataFile Version 3.0

ASCII

DATASET UNSTRUCTURED_GRID
FIELD FieldData 1
TIME 1 1 double
0.0
POINTS 1024 float
-2.0 -1.0 0.0
-1.8709677419354838 -1.0 0.0
-1.8709677419354838 -0.9354838709677419 0.0
-2.0 -0.9354838709677419 0.0
-1.7419354838709677 -1.0 0.0
-1.7419354838709677 -0.9354838709677419 0.0
-1.6129032258064515 -1.0 0.0
-1.6129032258064515 -0.9354838709677419 0.0
-1.4838709677419355 -1.0 0.0
-1.4838709677419355 -0.9354838709677419 0.0
-1.3548387096774193 -1.0 0.0
-1.3548387096774193 -0.9354838709677419 0.0
-1.2258064516129032 -1.0 0.0
-1.2258064516129032 -0.9354838709677419 0.0
-1.096774193548387 -1.0 0.0
-1.096774193548387 -0.9354838709677419 0.0
-0.967741935483871 -1.0 0.0
-0.967741935483871 -0.9354838709677419 0.0
-0.8387096774193549 -1.0 0.0
-0.8387096774193549 -0.9354838709677419 0.0
-0.7096774193548387 -1.0 0.0
-0.7096774193548387 -0.9354838709677419 0.0
-0.5806451612903226 -1.0 0.0
-0.5806451612903226 -0.9354838709677419 0.0
-0.45161290322580644 -1.0 0.0
-0.45161290322580644 -0.9354838709677419 0.0
-0.3225806451612903 -1.0 0.0
-0.3225806451612903 -0.9354838709677419 0.0
-0.1935483870967742 -1.0 0.0
-0.1935483870967742 -0.9354838709677419 0.0
-0.06451612903225806 -1.0 0.0
-0.06451612903225806 -0.9354838709677419 0.0
0.06451612903225806 -1.0 0.0
0.06451612903225806 -0.9354838709677419 0.0
0.1935483870967742 -1.0 0.0
0.1935483870967742 -0.9354838709677419 0.0
0.3225806451612903 -1.0 0.0
0.3225806451612903 -0.9354838709677419 0.0
0.45161290322580644 -1.0 0.0
0.45161290322580644 -0.9354838709677419 0.0
0.5806451612903226 -1.0 0.0
0.5806451612903226 -0.9354838709677419 0.0
0.7096774193548387 -1.0 0.0
0.7096774193548387 -0.9354838709677419 0.0
0.8387096774193549 -1.0 0.0
0.8387096774193549 -0.9354838709677419 0.0
0.967741935483871 -1.0 0.0
0.967741935483871 -0.9354838709677419 0.0
1.096774193548387 -1.0 0.0
1.096774193548387 -0.9354838709677419 0.0
1.2258064516129032 -1.0 0.0
1.2258064516129032 -0.9354838709677419 0.0
1.3548387096774193 -1.0 0.0
1.3548387096774193 -0.9354838709677419 0.0
1.4838709677419355 -1.0 0.0
1.4838709677419355 -0.9354838709677419 0.0
1.6129032258064515 -1.0 0.0
1.6129032258064515 -0.9354838709677419 0.0
1.7419354838709677 -1.0 0.0
1.7419354838709677 -0.9354838709677419 0.0
1.8709677419354838 -1.0 0.0
1.8709677419354838 -0.9354838709677419 0.0
2.0 -1.0 0.0
2.0 -0.9354838709677419 0.0
-1.8709677419354838 -0.8709677419354839 0.0
-2.0 -0.8709677419354839 0.0
-1.7419354838709677 -0.8709677419354839 0.0
-1.6129032258064515 -0.8709677419354839 0.0
-1.4838709677419355 -0.8709677419354839 0.0
-1.3548387096774193 -0.8709677419354839 0.0
-1.2258064516129032 -0.8709677419354839 0.0
-1.096774193548387 -0.8709677419354839 0.0
-0.967741935483871 -0.8709677419354839 0.0
-0.8387096774193549 -0.8709677419354839 0.0
-0.7096774193548387 -0.8709677419354839 0.0
-0.5806451612903226 -0.8709677419354839 0.0
-0.45161290322580644 -0.8709677419354839 0.0
-0.3225806451612903 -0.8709677419354839 0.0
-0.1935483870967742 -0.8709677419354839 0.0
-0.06451612903225806 -0.8709677419354839 0.0
0.06451612903225806 -0.8709677419354839 0.0
0.1935483870967742 -0.8709677419354839 0.0
0.3225806451612903 -0.8709677419354839 0.0
0.45161290322580644 -0.8709677419354839 0.0
0.5806451612903226 -0.8709677419354839 0.0
0.7096774193548387 -0.8709677419354839 0.0
0.8387096774193549 -0.8709677419354839 0.0
0.967741935483871 -0.8709677419354839 0.0
1.096774193548387 -0.8709677419354839 0.0
1.2258064516129032 -0.8709677419354839 0.0
1.3548387096774193 -0.8709677419354839 0.0
1.4838709677419355 -0.8709677419354839 0.0
1.6129032258064515 -0.8709677419354839 0.0
1.7419354838709677 -0.8709677419354839 0.0
1.8709677419354838 -0.8709677419354839 0.0
2.0 -0.8709677419354839 0.0
-1.8709677419354838 -0.8064516129032258 0.0
-2.0 -0.8064516129032258 0.0
-1.7419354838709677 -0.8064516129032258 0.0
-1.6129032258064515 -0.8064516129032258 0.0
-1.4838709677419355 -0.8064516129032258 0.0
-1.3548387096774193 -0.8064516129032258 0.0
-1.2258064516129032 -0.8064516129032258 0.0
-1.096774193548387 -0.8064516129032258 0.0
-0.967741935483871 -0.8064516129032258 0.0
-0.8387096774193549 -0.8064516129032258 0.0
-0.7096774193548387 -0.8064516129032258 0.0
-0.5806451612903226 -0.8064516129032258 0.0
-0.45161290322580644 -0.8064516129032258 0.0
-0.3225806451612903 -0.8064516129032258 0.0
-0.1935483870967742 -0.8064516129032258 0.0
-0.06451612903225806 -0.8064516129032258 0.0
0.06451612903225806 -0.8064516129032258 0.0
0.1935483870967742 -0.8064516129032258 0.0
0.3225806451612903 -0.8064516129032258 0.0
0.45161290322580644 -0.8064516129032258 0.0
0.5806451612903226 -0.8064516129032258 0.0
0.7096774193548387 -0.8064516129032258 0.0
0.8387096774193549 -0.8064516129032258 0.0
0.967741935483871 -0.8064516129032258 0.0
1.096774193548387 -0.8064516129032258 0.0
1.2258064516129032 -0.8064516129032258 0.0
1.3548387096774193 -0.8064516129032258 0.0
1.4838709677419355 -0.8064516129032258 0.0
1.6129032258064515 -0.8064516129032258 0.0
1.7419354838709677 -0.8064516129032258 0.0
1.8709677419354838 -0.8064516129032258 0.0
2.0 -0.8064516129032258 0.0
-1.8709677419354838 -0.7419354838709677 0.0
-2.0 -0.7419354838709677 0.0
-1.7419354838709677 -0.7419354838709677 0.0
-1.6129032258064515 -0.7419354838709677 0.0
-1.4838709677419355 -0.7419354838709677 0.0
-1.3548387096774193 -0.7419354838709677 0.0
-1.2258064516129032 -0.7419354838709677 0.0
-1.096774193548387 -0.7419354838709677 0.0
-0.967741935483871 -0.7419354838709677 0.0
-0.8387096774193549 -0.7419354838709677 0.0
-0.7096774193548387 -0.7419354838709677 0.0
-0.5806451612903226 -0.7419354838709677 0.0
-0.45161290322580644 -0.7419354838709677 0.0
-0.3225806451612903 -0.7419354838709677 0.0
-0.1935483870967742 -0.7419354838709677 0.0
-0.06451612903225806 -0.7419354838709677 0.0
0.06451612903225806 -0.7419354838709677 0.0
0.1935483870967742 -0.7419354838709677 0.0
0.3225806451612903 -0.7419354838709677 0.0
0.45161290322580644 -0.7419354838709677 0.0
0.5806451612903226 -0.7419354838709677 0.0
0.7096774193548387 -0.7419354838709677 0.0
0.8387096774193549 -0.7419354838709677 0.0
0.967741935483871 -0.7419354838709677 0.0
1.096774193548387 -0.7419354838709677 0.0
1.2258064516129032 -0.7419354838709677 0.0
1.3548387096774193 -0.7419354838709677 0.0
1.4838709677419355 -0.7419354838709677 0.0
1.6129032258064515 -0.7419354838709677 0.0
1.7419354838709677 -0.7419354838709677 0.0
1.8709677419354838 -0.7419354838709677 0.0
2.0 -0.7419354838709677 0.0
-1.8709677419354838 -0.6774193548387096 0.0
-2.0 -0.6774193548387096 0.0
-1.7419354838709677 -0.6774193548387096 0.0
-1.6129032258064515 -0.6774193548387096 0.0
-1.4838709677419355 -0.6774193548387096 0.0
-1.3548387096774193 -0.6774193548387096 0.0
-1.2258064516129032 -0.6774193548387096 0.0
-1.096774193548387 -0.6774193548387096 0.0
-0.967741935483871 -0.6774193548387096 0.0
-0.8387096774193549 -0.6774193548387096 0.0
-0.7096774193548387 -0.6774193548387096 0.0
-0.5806451612903226 -0.6774193548387096 0.0
-0.45161290322580644 -0.6774193548387096 0.0
-0.3225806451612903 -0.6774193548387096 0.0
-0.1935483870967742 -0.6774193548387096 0.0
-0.06451612903225806 -0.6774193548387096 0.0
0.06451612903225806 -0.6774193548387096 0.0
0.1935483870967742 -0.6774193548387096 0.0
0.3225806451612903 -0.6774193548387096 0.0
0.45161290322580644 -0.6774193548387096 0.0
0.5806451612903226 -0.6774193548387096 0.0
0.7096774193548387 -0.6774193548387096 0.0
0.8387096774193549 -0.6774193548387096 0.0
0.967741935483871 -0.6774193548387096 0.0
1.096774193548387 -0.6774193548387096 0.0
1.2258064516129032 -0.6774193548387096 0.0
1.3548387096774193 -0.6774193548387096 0.0
1.4838709677419355 -0.6774193548387096 0.0
1.6129032258064515 -0.6774193548387096 0.0
1.7419354838709677 -0.6774193548387096 0.0
1.8709677419354838 -0.6774193548387096 0.0
2.0 -0.6774193548387096 0.0
-1.8709677419354838 -0.6129032258064516 0.0
-2.0 -0.6129032258064516 0.0
-1.7419354838709677 -0.6129032258064516 0.0
-1.6129032258064515 -0.6129032258064516 0.0
-1.4838709677419355 -0.6129032258064516 0.0
-1.3548387096774193 -0.6129032258064516 0.0
-1.2258064516129032 -0.6129032258064516 0.0
-1.096774193548387 -0.6129032258064516 0.0
-0.967741935483871 -0.6129032258064516 0.0
-0.8387096774193549 -0.6129032258064516 0.0
-0.7096774193548387 -0.6129032258064516 0.0
-0.5806451612903226 -0.6129032258064516 0.0
-0.45161290322580644 -0.6129032258064516 0.0
-0.3225806451612903 -0.6129032258064516 0.0
-0.1935483870967742 -0.6129032258064516 0.0
-0.06451612903225806 -0.6129032258064516 0.0
0.06451612903225806 -0.6129032258064516 0.0
0.1935483870967742 -0.6129032258064516 0.0
0.3225806451612903 -0.6129032258064516 0.0
0.45161290322580644 -0.6129032258064516 0.0
0.5806451612903226 -0.6129032258064516 0.0
0.7096774193548387 -0.6129032258064516 0.0
0.8387096774193549 -0.6129032258064516 0.0
0.967741935483871 -0.6129032258064516 0.0
1.096774193548387 -0.6129032258064516 0.0
1.2258064516129032 -0.6129032258064516 0.0
1.3548387096774193 -0.6129032258064516 0.0
1.4838709677419355 -0.6129032258064516 0.0
1.6129032258064515 -0.6129032258064516 0.0
1.7419354838709677 -0.6129032258064516 0.0
1.8709677419354838 -0.6129032258064516 0.0
2.0 -0.6129032258064516 0.0
-1.8709677419354838 -0.5483870967741935 0.0
-2.0 -0.5483870967741935 0.0
-1.7419354838709677 -0.5483870967741935 0.0
-1.6129032258064515 -0.5483870967741935 0.0
-1.4838709677419355 -0.5483870967741935 0.0
-1.3548387096774193 -0.5483870967741935 0.0
-1.2258064516129032 -0.5483870967741935 0.0
-1.096774193548387 -0.5483870967741935 0.0
-0.967741935483871 -0.5483870967741935 0.0
-0.8387096774193549 -0.5483870967741935 0.0
-0.7096774193548387 -0.5483870967741935 0.0
-0.5806451612903226 -0.5483870967741935 0.0
-0.45161290322580644 -0.5483870967741935 0.0
-0.3225806451612903 -0.5483870967741935 0.0
-0.1935483870967742 -0.5483870967741935 0.0
-0.06451612903225806 -0.5483870967741935 0.0
0.06451612903225806 -0.5483870967741935 0.0
0.1935483870967742 -0.5483870967741935 0.0
0.3225806451612903 -0.5483870967741935 0.0
[...]
POINT_DATA 1024
SCALARS pressure double
LOOKUP_TABLE default
8.0
6.549360545131078
5.3617654437649565
6.549360545131078
5.28562317478433
4.32718148467037
4.195898090027188
3.435056175276864
3.2672954919270922
2.6748370230139917
2.486925581551475
2.035971535311299
1.8418985599677755
1.5079072195983372
1.319324628243429
1.0800915833046552
0.906313987445873
0.741972133859803
0.5899768386425431
0.48299637869332956
0.3574233829008762
0.2926118252347846
0.19576382128830858
0.16026598091371747
0.09210835487227685
0.07540635315967774
0.03356718472021751
0.027480449402214918
0.007250511899566983
0.005935777070878423
0.00026853747776174006
0.00021984359521771933
-0.00026853747776174006
-0.00021984359521771933
-0.007250511899566983
-0.005935777070878423
-0.03356718472021751
-0.027480449402214918
-0.09210835487227685
-0.07540635315967774
-0.19576382128830858
-0.16026598091371747
-0.3574233829008762
-0.2926118252347846
-0.5899768386425431
-0.48299637869332956
-0.906313987445873
-0.741972133859803
-1.319324628243429
-1.0800915833046552
-1.8418985599677755
-1.5079072195983372
-2.486925581551475
-2.035971535311299
-3.2672954919270922
-2.6748370230139917
-4.195898090027188
-3.435056175276864
-5.28562317478433
-4.32718148467037
-6.549360545131078
-5.3617654437649565
-8.0
-6.549360545131078
4.32718148467037
5.28562317478433
3.4922265432271478
2.7722420229601266
2.158711596374776
1.6431189359765592
1.216947714270945
0.8716816037633986
0.5988042769593876
0.38979940636437765
0.2361506644838356
0.12934172382322773
0.06085625688802072
0.022177936183681017
0.0047904342156751
0.0001774234894694481
-0.0001774234894694481
-0.0047904342156751
-0.022177936183681017
-0.06085625688802072
-0.12934172382322773
-0.2361506644838356
-0.38979940636437765
-0.5988042769593876
-0.8716816037633986
-1.216947714270945
-1.6431189359765592
-2.158711596374776
-2.7722420229601266
-3.4922265432271478
-4.32718148467037
-5.28562317478433
3.435056175276864
4.195898090027188
2.7722420229601266
2.2006950977367254
1.713654864266416
1.3043607872089484
0.9660523312240772
0.6919689609715542
0.47535014111113294
0.30943533630256564
0.18746401120560535
0.10267563048000472
0.04830965878551661
0.01760556078189381
0.003802801128889063
0.00014084448625515045
-0.00014084448625515045
-0.003802801128889063
-0.01760556078189381
-0.04830965878551661
-0.10267563048000472
-0.18746401120560535
-0.30943533630256564
-0.47535014111113294
-0.6919689609715542
-0.9660523312240772
-1.3043607872089484
-1.713654864266416
-2.2006950977367254
-2.7722420229601266
-3.435056175276864
-4.195898090027188
2.6748370230139917
3.2672954919270922
2.158711596374776
1.713654864266416
1.3344024789458875
1.015690092670162
0.7522533576962145
0.5388279262810178
0.37014945068154603
0.24095358315477233
0.14597597595767048
0.07995228134721394
0.037618151580376374
0.01370923891413133
0.0029611956054523677
0.00010967391131305064
-0.00010967391131305064
-0.0029611956054523677
-0.01370923891413133
-0.037618151580376374
-0.07995228134721394
-0.14597597595767048
-0.24095358315477233
-0.37014945068154603
-0.5388279262810178
-0.7522533576962145
-1.015690092670162
-1.3344024789458875
-1.713654864266416
-2.158711596374776
-2.6748370230139917
-3.2672954919270922
2.035971535311299
2.486925581551475
1.6431189359765592
1.3043607872089484
1.015690092670162
0.7730998560218927
0.5725830809258355
0.4101327710436841
0.281741930037133
0.1834035615678759
0.11111066929760713
0.060856256888020724
0.02863332800081084
0.01043488629767159
0.0022539354402970634
8.34790903813727e-5
-8.34790903813727e-5
-0.0022539354402970634
-0.01043488629767159
-0.02863332800081084
-0.060856256888020724
-0.11111066929760713
-0.1834035615678759
-0.281741930037133
-0.4101327710436841
-0.5725830809258355
-0.7730998560218927
-1.015690092670162
-1.3043607872089484
-1.6431189359765592
-2.035971535311299
-2.486925581551475
1.5079072195983372
1.8418985599677755
1.216947714270945
0.9660523312240772
0.7522533576962145
0.5725830809258355
0.42407378815142066
0.3037577666114491
0.20866730354440075
0.1358346861887551
0.08229220178299185
0.045072137565590566
0.021206780775030947
0.007728418649792619
0.0016693384283552057
6.182734919834094e-5
-6.182734919834094e-5
-0.0016693384283552057
-0.007728418649792619
-0.021206780775030947
-0.045072137565590566
-0.08229220178299185
-0.1358346861887551
-0.20866730354440075
-0.3037577666114491
-0.42407378815142066
-0.5725830809258355
-0.7522533576962145
-0.9660523312240772
-1.216947714270945
-1.5079072195983372
-1.8418985599677755
1.0800915833046552
1.319324628243429
0.8716816037633986
0.6919689609715542
0.5388279262810178
0.4101327710436841
0.3037577666114491
0.21757718433620776
0.14946529556985577
0.09729637166428834
0.05894468397140091
0.03228450384308885
0.015190102631247562
0.005535751687772435
0.001195722364558846
4.428601350217947e-5
-4.428601350217947e-5
-0.001195722364558846
-0.005535751687772435
-0.015190102631247562
-0.03228450384308885
-0.05894468397140091
-0.09729637166428834
-0.14946529556985577
-0.21757718433620776
-0.3037577666114491
-0.4101327710436841
-0.5388279262810178
-0.6919689609715542
-0.8716816037633986
-1.0800915833046552
-1.319324628243429
0.741972133859803
0.906313987445873
0.5988042769593876
0.47535014111113294
0.37014945068154603
0.281741930037133
0.20866730354440075
0.14946529556985577
0.10267563048000475
0.06683803264135421
0.040492226420410775
0.022177936183681028
0.010434886297671591
0.003802801128889064
0.0008214050438400379
3.042240903111251e-5
-3.042240903111251e-5
-0.0008214050438400379
-0.003802801128889064
-0.010434886297671591
-0.022177936183681028
-0.040492226420410775
-0.06683803264135421
-0.10267563048000475
-0.14946529556985577
-0.20866730354440075
-0.281741930037133
-0.37014945068154603
-0.47535014111113294
-0.5988042769593876
-0.741972133859803
-0.906313987445873
0.48299637869332956
0.5899768386425431
0.38979940636437765
0.30943533630256564
0.24095358315477233
0.1834035615678759
0.1358346861887551
0.09729637166428834
0.06683803264135421
0.04350908376683117
0.02635893968759777
0.01443701505053251
0.006792724502513923
0.0024754826904205256
0.0005347042611308336
1.9803861523364204e-5
-1.9803861523364204e-5
-0.0005347042611308336
-0.0024754826904205256
-0.006792724502513923
-0.01443701505053251
-0.02635893968759777
-0.04350908376683117
-0.06683803264135421
-0.09729637166428834
-0.1358346861887551
-0.1834035615678759
-0.24095358315477233
-0.30943533630256564
-0.38979940636437765
-0.48299637869332956
-0.5899768386425431
0.2926118252347846
0.3574233829008762
0.2361506644838356
0.18746401120560535
0.14597597595767048
0.11111066929760713
0.08229220178299185
0.05894468397140091
0.040492226420410775
0.02635893968759777
0.015968934330538295
0.008746320906808727
0.0041152099739854495
0.001499712089644843
0.0003239378113632861
1.1997696717158743e-5
-1.1997696717158743e-5
-0.0003239378113632861
-0.001499712089644843
-0.0041152099739854495
-0.008746320906808727
-0.015968934330538295
-0.02635893968759777
-0.040492226420410775
-0.05894468397140091
-0.08229220178299185
-0.11111066929760713
-0.14597597595767048
-0.18746401120560535
-0.2361506644838356
-0.2926118252347846
-0.3574233829008762
0.16026598091371747
0.19576382128830858
0.12934172382322773
0.10267563048000472
0.07995228134721394
0.060856256888020724
0.045072137565590566
0.03228450384308885
0.022177936183681028
0.01443701505053251
0.008746320906808727
0.0047904342156751024
0.002253935440297064
0.0008214050438400379
0.0001774234894694482
6.571240350720302e-6
-6.571240350720302e-6
-0.0001774234894694482
-0.0008214050438400379
-0.002253935440297064
-0.0047904342156751024
-0.008746320906808727
-0.01443701505053251
-0.022177936183681028
-0.03228450384308885
-0.045072137565590566
-0.060856256888020724
-0.07995228134721394
-0.10267563048000472
-0.12934172382322773
-0.16026598091371747
-0.19576382128830858
0.07540635315967774
0.09210835487227685
0.06085625688802072
0.04830965878551661
0.037618151580376374
0.02863332800081084
0.021206780775030947
0.015190102631247562
0.010434886297671591
0.006792724502513923
0.0041152099739854495
0.002253935440297064
0.0010604936296596608
0.00038647727028413294
8.347909038137272e-5
3.0918181622730633e-6
-3.0918181622730633e-6
-8.347909038137272e-5
-0.00038647727028413294
-0.0010604936296596608
-0.002253935440297064
-0.0041152099739854495
-0.006792724502513923
-0.010434886297671591
-0.015190102631247562
-0.021206780775030947
-0.02863332800081084
-0.037618151580376374
-0.04830965878551661
-0.06085625688802072
-0.07540635315967774
-0.09210835487227685
0.027480449402214918
0.03356718472021751
0.022177936183681017
0.01760556078189381
0.01370923891413133
0.01043488629767159
0.007728418649792619
0.005535751687772435
0.003802801128889064
0.0024754826904205256
0.001499712089644843
0.0008214050438400379
0.00038647727028413294
0.00014084448625515048
3.042240903111251e-5
1.1267558900412037e-6
-1.1267558900412037e-6
-3.042240903111251e-5
-0.00014084448625515048
-0.00038647727028413294
-0.0008214050438400379
-0.001499712089644843
-0.0024754826904205256
-0.003802801128889064
-0.005535751687772435
-0.007728418649792619
-0.01043488629767159
-0.01370923891413133
-0.01760556078189381
-0.022177936183681017
-0.027480449402214918
-0.03356718472021751
0.005935777070878423
0.007250511899566983
0.0047904342156751
0.003802801128889063
0.0029611956054523677
0.0022539354402970634
0.0016693384283552057
0.001195722364558846
0.0008214050438400379
0.0005347042611308336
0.0003239378113632861
0.0001774234894694482
8.347909038137272e-5
3.042240903111251e-5
6.571240350720302e-6
2.4337927224890005e-7
-2.4337927224890005e-7
-6.571240350720302e-6
-3.042240903111251e-5
-8.347909038137272e-5
-0.0001774234894694482
-0.0003239378113632861
-0.0005347042611308336
-0.0008214050438400379
-0.001195722364558846
-0.0016693384283552057
-0.0022539354402970634
-0.0029611956054523677
-0.003802801128889063
-0.0047904342156751
-0.005935777070878423
-0.007250511899566983
0.00021984359521771933
0.00026853747776174006
0.0001774234894694481
0.00014084448625515045
0.00010967391131305064
8.34790903813727e-5
6.182734919834094e-5
4.428601350217947e-5
3.042240903111251e-5
1.9803861523364204e-5
1.1997696717158743e-5
6.571240350720302e-6
3.0918181622730633e-6
1.1267558900412037e-6
2.4337927224890005e-7
9.01404712032963e-9
-9.01404712032963e-9
-2.4337927224890005e-7
-1.1267558900412037e-6
-3.0918181622730633e-6
-6.571240350720302e-6
-1.1997696717158743e-5
-1.9803861523364204e-5
-3.042240903111251e-5
-4.428601350217947e-5
-6.182734919834094e-5
-8.34790903813727e-5
-0.00010967391131305064
-0.00014084448625515045
-0.0001774234894694481
-0.00021984359521771933
-0.00026853747776174006
-0.00021984359521771933
-0.00026853747776174006
-0.0001774234894694481
-0.00014084448625515045
-0.00010967391131305064
-8.34790903813727e-5
-6.182734919834094e-5
-4.428601350217947e-5
-3.042240903111251e-5
-1.9803861523364204e-5
-1.1997696717158743e-5
-6.571240350720302e-6
-3.0918181622730633e-6
-1.1267558900412037e-6
-2.4337927224890005e-7
-9.01404712032963e-9
9.01404712032963e-9
2.4337927224890005e-7
1.1267558900412037e-6
3.0918181622730633e-6
6.571240350720302e-6
1.1997696717158743e-5
1.9803861523364204e-5
3.042240903111251e-5
4.428601350217947e-5
6.182734919834094e-5
8.34790903813727e-5
0.00010967391131305064
0.00014084448625515045
0.0001774234894694481
0.00021984359521771933
0.00026853747776174006
-0.005935777070878423
-0.007250511899566983
-0.0047904342156751
-0.003802801128889063
-0.0029611956054523677
-0.0022539354402970634
-0.0016693384283552057
-0.001195722364558846
-0.0008214050438400379
-0.0005347042611308336
-0.0003239378113632861
-0.0001774234894694482
-8.347909038137272e-5
-3.042240903111251e-5
-6.571240350720302e-6
-2.4337927224890005e-7
2.4337927224890005e-7
6.571240350720302e-6
3.042240903111251e-5
8.347909038137272e-5
0.0001774234894694482
0.0003239378113632861
0.0005347042611308336
0.0008214050438400379
0.001195722364558846
0.0016693384283552057
0.0022539354402970634
0.0029611956054523677
0.003802801128889063
0.0047904342156751
0.005935777070878423
0.007250511899566983
-0.027480449402214918
-0.03356718472021751
-0.022177936183681017
-0.01760556078189381
-0.01370923891413133
-0.01043488629767159
-0.007728418649792619
-0.005535751687772435
-0.003802801128889064
-0.0024754826904205256
-0.001499712089644843
-0.0008214050438400379
-0.00038647727028413294
-0.00014084448625515048
-3.042240903111251e-5
-1.1267558900412037e-6
1.1267558900412037e-6
3.042240903111251e-5
0.00014084448625515048
0.00038647727028413294
0.0008214050438400379
0.001499712089644843
0.0024754826904205256
0.003802801128889064
0.005535751687772435
0.007728418649792619
0.01043488629767159
0.01370923891413133
0.01760556078189381
0.022177936183681017
0.027480449402214918
0.03356718472021751
-0.07540635315967774
-0.09210835487227685
-0.06085625688802072
-0.04830965878551661
-0.037618151580376374
-0.02863332800081084
-0.021206780775030947
-0.015190102631247562
-0.010434886297671591
-0.006792724502513923
-0.0041152099739854495
-0.002253935440297064
-0.0010604936296596608
-0.00038647727028413294
-8.347909038137272e-5
-3.0918181622730633e-6
3.0918181622730633e-6
8.347909038137272e-5
0.00038647727028413294
0.0010604936296596608
0.002253935440297064
0.0041152099739854495
0.006792724502513923
0.010434886297671591
0.015190102631247562
0.021206780775030947
0.02863332800081084
0.037618151580376374
0.04830965878551661
0.06085625688802072
0.07540635315967774
0.09210835487227685
-0.16026598091371747
-0.19576382128830858
-0.12934172382322773
-0.10267563048000472
-0.07995228134721394
-0.060856256888020724
-0.045072137565590566
-0.03228450384308885
-0.022177936183681028
-0.01443701505053251
-0.008746320906808727
-0.0047904342156751024
-0.002253935440297064
-0.0008214050438400379
-0.0001774234894694482
-6.571240350720302e-6
6.571240350720302e-6
0.0001774234894694482
0.0008214050438400379
0.002253935440297064
0.0047904342156751024
0.008746320906808727
0.01443701505053251
0.022177936183681028
0.03228450384308885
0.045072137565590566
0.060856256888020724
0.07995228134721394
0.10267563048000472
0.12934172382322773
0.16026598091371747
0.19576382128830858
-0.2926118252347846
-0.3574233829008762
-0.2361506644838356
-0.18746401120560535
-0.14597597595767048
-0.11111066929760713
-0.08229220178299185
-0.05894468397140091
-0.040492226420410775
-0.02635893968759777
-0.015968934330538295
-0.008746320906808727
-0.0041152099739854495
-0.001499712089644843
-0.0003239378113632861
-1.1997696717158743e-5
1.1997696717158743e-5
0.0003239378113632861
0.001499712089644843
0.0041152099739854495
0.008746320906808727
0.015968934330538295
0.02635893968759777
0.040492226420410775
0.05894468397140091
0.08229220178299185
0.11111066929760713
0.14597597595767048
0.18746401120560535
0.2361506644838356
0.2926118252347846
0.3574233829008762
-0.48299637869332956
-0.5899768386425431
-0.38979940636437765
-0.30943533630256564
-0.24095358315477233
-0.1834035615678759
-0.1358346861887551
-0.09729637166428834
-0.06683803264135421
-0.04350908376683117
-0.02635893968759777
-0.01443701505053251
-0.006792724502513923
-0.0024754826904205256
-0.0005347042611308336
-1.9803861523364204e-5
1.9803861523364204e-5
0.0005347042611308336
0.0024754826904205256
0.006792724502513923
0.01443701505053251
0.02635893968759777
0.04350908376683117
0.06683803264135421
0.09729637166428834
0.1358346861887551
0.1834035615678759
0.24095358315477233
0.30943533630256564
0.38979940636437765
0.48299637869332956
0.5899768386425431
-0.741972133859803
-0.906313987445873
-0.5988042769593876
-0.47535014111113294
-0.37014945068154603
-0.281741930037133
-0.20866730354440075
-0.14946529556985577
-0.10267563048000475
-0.06683803264135421
-0.040492226420410775
-0.022177936183681028
-0.010434886297671591
-0.003802801128889064
-0.0008214050438400379
-3.042240903111251e-5
3.042240903111251e-5
0.0008214050438400379
0.003802801128889064
0.010434886297671591
0.022177936183681028
0.040492226420410775
0.06683803264135421
0.10267563048000475
0.14946529556985577
0.20866730354440075
0.281741930037133
0.37014945068154603
0.47535014111113294
0.5988042769593876
0.741972133859803
0.906313987445873
-1.0800915833046552
-1.319324628243429
-0.8716816037633986
-0.6919689609715542
-0.5388279262810178
-0.4101327710436841
-0.3037577666114491
-0.21757718433620776
-0.14946529556985577
-0.09729637166428834
-0.05894468397140091
-0.03228450384308885
-0.015190102631247562
-0.005535751687772435
-0.001195722364558846
-4.428601350217947e-5
4.428601350217947e-5
0.001195722364558846
0.005535751687772435
0.015190102631247562
0.03228450384308885
0.05894468397140091
0.09729637166428834
0.14946529556985577
0.21757718433620776
0.3037577666114491
0.4101327710436841
0.5388279262810178
0.6919689609715542
0.8716816037633986
1.0800915833046552
1.319324628243429
-1.5079072195983372
-1.8418985599677755
-1.216947714270945
-0.9660523312240772
-0.7522533576962145
-0.5725830809258355
-0.42407378815142066
-0.3037577666114491
-0.20866730354440075
-0.1358346861887551
-0.08229220178299185
-0.045072137565590566
-0.021206780775030947
-0.007728418649792619
-0.0016693384283552057
-6.182734919834094e-5
6.182734919834094e-5
0.0016693384283552057
0.007728418649792619
0.021206780775030947
0.045072137565590566
0.08229220178299185
0.1358346861887551
0.20866730354440075
0.3037577666114491
0.42407378815142066
0.5725830809258355
0.7522533576962145
0.9660523312240772
1.216947714270945
1.5079072195983372
1.8418985599677755
-2.035971535311299
-2.486925581551475
-1.6431189359765592
-1.3043607872089484
-1.015690092670162
-0.7730998560218927
-0.5725830809258355
-0.4101327710436841
-0.281741930037133
-0.1834035615678759
-0.11111066929760713
-0.060856256888020724
-0.02863332800081084
-0.01043488629767159
-0.0022539354402970634
-8.34790903813727e-5
8.34790903813727e-5
0.0022539354402970634
0.01043488629767159
0.02863332800081084
0.060856256888020724
0.11111066929760713
0.1834035615678759
0.281741930037133
0.4101327710436841
0.5725830809258355
0.7730998560218927
1.015690092670162
1.3043607872089484
1.6431189359765592
2.035971535311299
2.486925581551475
-2.6748370230139917
-3.2672954919270922
-2.158711596374776
-1.713654864266416
-1.3344024789458875
-1.015690092670162
-0.7522533576962145
-0.5388279262810178
-0.37014945068154603
-0.24095358315477233
-0.14597597595767048
-0.07995228134721394
-0.037618151580376374
-0.01370923891413133
-0.0029611956054523677
-0.00010967391131305064
0.00010967391131305064
0.0029611956054523677
0.01370923891413133
0.037618151580376374
0.07995228134721394
0.14597597595767048
0.24095358315477233
0.37014945068154603
0.5388279262810178
0.7522533576962145
1.015690092670162
1.3344024789458875
1.713654864266416
2.158711596374776
2.6748370230139917
3.2672954919270922
-3.435056175276864
-4.195898090027188
-2.7722420229601266
-2.2006950977367254
-1.713654864266416
-1.3043607872089484
-0.9660523312240772
-0.6919689609715542
-0.47535014111113294
-0.30943533630256564
-0.18746401120560535
-0.10267563048000472
-0.04830965878551661
-0.01760556078189381
-0.003802801128889063
-0.00014084448625515045
0.00014084448625515045
0.003802801128889063
0.01760556078189381
0.04830965878551661
0.10267563048000472
0.18746401120560535
0.30943533630256564
0.47535014111113294
0.6919689609715542
0.9660523312240772
1.3043607872089484
1.713654864266416
2.2006950977367254
2.7722420229601266
3.435056175276864
4.195898090027188
-4.32718148467037
-5.28562317478433
-3.4922265432271478
-2.7722420229601266
-2.158711596374776
-1.6431189359765592
-1.216947714270945
-0.8716816037633986
-0.5988042769593876
-0.38979940636437765
-0.2361506644838356
-0.12934172382322773
-0.06085625688802072
-0.022177936183681017
-0.0047904342156751
-0.0001774234894694481
0.0001774234894694481
0.0047904342156751
0.022177936183681017
0.06085625688802072
0.12934172382322773
0.2361506644838356
0.38979940636437765
0.5988042769593876
0.8716816037633986
1.216947714270945
1.6431189359765592
2.158711596374776
2.7722420229601266
3.4922265432271478
4.32718148467037
5.28562317478433
-5.3617654437649565
-6.549360545131078
-4.32718148467037
-3.435056175276864