# vtk DataFile Version 3.0

ASCII

DATASET UNSTRUCTURED_GRID
FIELD FieldData 1
TIME 1 1 double
0.0
POINTS 1024 float
-2.0 -1.0 0.0
-1.8709677419354838 -1.0 0.0
-1.8709677419354838 -0.9354838709677419 0.0
-2.0 -0.9354838709677419 0.0
-1.7419354838709677 -1.0 0.0
-1.7419354838709677 -0.9354838709677419 0.0
-1.6129032258064515 -1.0 0.0
-1.6129032258064515 -0.9354838709677419 0.0
-1.4838709677419355 -1.0 0.0
-1.4838709677419355 -0.9354838709677419 0.0
-1.3548387096774193 -1.0 0.0
-1.3548387096774193 -0.9354838709677419 0.0
-1.2258064516129032 -1.0 0.0
-1.2258064516129032 -0.9354838709677419 0.0
-1.096774193548387 -1.0 0.0
-1.096774193548387 -0.9354838709677419 0.0
-0.967741935483871 -1.0 0.0
-0.967741935483871 -0.9354838709677419 0.0
-0.8387096774193549 -1.0 0.0
-0.8387096774193549 -0.9354838709677419 0.0
-0.7096774193548387 -1.0 0.0
-0.7096774193548387 -0.9354838709677419 0.0
-0.5806451612903226 -1.0 0.0
-0.5806451612903226 -0.9354838709677419 0.0
-0.45161290322580644 -1.0 0.0
-0.45161290322580644 -0.9354838709677419 0.0
-0.3225806451612903 -1.0 0.0
-0.3225806451612903 -0.9354838709677419 0.0
-0.1935483870967742 -1.0 0.0
-0.1935483870967742 -0.9354838709677419 0.0
-0.06451612903225806 -1.0 0.0
-0.06451612903225806 -0.9354838709677419 0.0
0.06451612903225806 -1.0 0.0
0.06451612903225806 -0.9354838709677419 0.0
0.1935483870967742 -1.0 0.0
0.1935483870967742 -0.9354838709677419 0.0
0.3225806451612903 -1.0 0.0
0.3225806451612903 -0.9354838709677419 0.0
0.45161290322580644 -1.0 0.0
0.45161290322580644 -0.9354838709677419 0.0
0.5806451612903226 -1.0 0.0
0.5806451612903226 -0.9354838709677419 0.0
0.7096774193548387 -1.0 0.0
0.7096774193548387 -0.9354838709677419 0.0
0.8387096774193549 -1.0 0.0
0.8387096774193549 -0.9354838709677419 0.0
0.967741935483871 -1.0 0.0
0.967741935483871 -0.9354838709677419 0.0
1.096774193548387 -1.0 0.0
1.096774193548387 -0.9354838709677419 0.0
1.2258064516129032 -1.0 0.0
1.2258064516129032 -0.9354838709677419 0.0
1.3548387096774193 -1.0 0.0
1.3548387096774193 -0.9354838709677419 0.0
1.4838709677419355 -1.0 0.0
1.4838709677419355 -0.9354838709677419 0.0
1.6129032258064515 -1.0 0.0
1.6129032258064515 -0.9354838709677419 0.0
1.7419354838709677 -1.0 0.0
1.7419354838709677 -0.9354838709677419 0.0
1.8709677419354838 -1.0 0.0
1.8709677419354838 -0.9354838709677419 0.0
2.0 -1.0 0.0
2.0 -0.9354838709677419 0.0
-1.8709677419354838 -0.8709677419354839 0.0
-2.0 -0.8709677419354839 0.0
-1.7419354838709677 -0.8709677419354839 0.0
-1.6129032258064515 -0.8709677419354839 0.0
-1.4838709677419355 -0.8709677419354839 0.0
-1.3548387096774193 -0.8709677419354839 0.0
-1.2258064516129032 -0.8709677419354839 0.0
-1.096774193548387 -0.8709677419354839 0.0
-0.967741935483871 -0.8709677419354839 0.0
-0.8387096774193549 -0.8709677419354839 0.0
-0.7096774193548387 -0.8709677419354839 0.0
-0.5806451612903226 -0.8709677419354839 0.0
-0.45161290322580644 -0.8709677419354839 0.0
-0.3225806451612903 -0.8709677419354839 0.0
-0.1935483870967742 -0.8709677419354839 0.0
-0.06451612903225806 -0.8709677419354839 0.0
0.06451612903225806 -0.8709677419354839 0.0
0.1935483870967742 -0.8709677419354839 0.0
0.3225806451612903 -0.8709677419354839 0.0
0.45161290322580644 -0.8709677419354839 0.0
0.5806451612903226 -0.8709677419354839 0.0
0.7096774193548387 -0.8709677419354839 0.0
0.8387096774193549 -0.8709677419354839 0.0
0.967741935483871 -0.8709677419354839 0.0
1.096774193548387 -0.8709677419354839 0.0
1.2258064516129032 -0.8709677419354839 0.0
1.3548387096774193 -0.8709677419354839 0.0
1.4838709677419355 -0.8709677419354839 0.0
1.6129032258064515 -0.8709677419354839 0.0
1.7419354838709677 -0.8709677419354839 0.0
1.8709677419354838 -0.8709677419354839 0.0
2.0 -0.8709677419354839 0.0
-1.8709677419354838 -0.8064516129032258 0.0
-2.0 -0.8064516129032258 0.0
-1.7419354838709677 -0.8064516129032258 0.0
-1.6129032258064515 -0.8064516129032258 0.0
-1.4838709677419355 -0.8064516129032258 0.0
-1.3548387096774193 -0.8064516129032258 0.0
-1.2258064516129032 -0.8064516129032258 0.0
-1.096774193548387 -0.8064516129032258 0.0
-0.967741935483871 -0.8064516129032258 0.0
-0.8387096774193549 -0.8064516129032258 0.0
-0.7096774193548387 -0.8064516129032258 0.0
-0.5806451612903226 -0.8064516129032258 0.0
-0.45161290322580644 -0.8064516129032258 0.0
-0.3225806451612903 -0.8064516129032258 0.0
-0.1935483870967742 -0.8064516129032258 0.0
-0.06451612903225806 -0.8064516129032258 0.0
0.06451612903225806 -0.8064516129032258 0.0
0.1935483870967742 -0.8064516129032258 0.0
0.3225806451612903 -0.8064516129032258 0.0
0.45161290322580644 -0.8064516129032258 0.0
0.5806451612903226 -0.8064516129032258 0.0
0.7096774193548387 -0.8064516129032258 0.0
0.8387096774193549 -0.8064516129032258 0.0
0.967741935483871 -0.8064516129032258 0.0
1.096774193548387 -0.8064516129032258 0.0
1.2258064516129032 -0.8064516129032258 0.0
1.3548387096774193 -0.8064516129032258 0.0
1.4838709677419355 -0.8064516129032258 0.0
1.6129032258064515 -0.8064516129032258 0.0
1.7419354838709677 -0.8064516129032258 0.0
1.8709677419354838 -0.8064516129032258 0.0
2.0 -0.8064516129032258 0.0
-1.8709677419354838 -0.7419354838709677 0.0
-2.0 -0.7419354838709677 0.0
-1.7419354838709677 -0.7419354838709677 0.0
-1.6129032258064515 -0.7419354838709677 0.0
-1.4838709677419355 -0.7419354838709677 0.0
-1.3548387096774193 -0.7419354838709677 0.0
-1.2258064516129032 -0.7419354838709677 0.0
-1.096774193548387 -0.7419354838709677 0.0
-0.967741935483871 -0.7419354838709677 0.0
-0.8387096774193549 -0.7419354838709677 0.0
-0.7096774193548387 -0.7419354838709677 0.0
-0.5806451612903226 -0.7419354838709677 0.0
-0.45161290322580644 -0.7419354838709677 0.0
-0.3225806451612903 -0.7419354838709677 0.0
-0.1935483870967742 -0.7419354838709677 0.0
-0.06451612903225806 -0.7419354838709677 0.0
0.06451612903225806 -0.7419354838709677 0.0
0.1935483870967742 -0.7419354838709677 0.0
0.3225806451612903 -0.7419354838709677 0.0
0.45161290322580644 -0.7419354838709677 0.0
0.5806451612903226 -0.7419354838709677 0.0
0.7096774193548387 -0.7419354838709677 0.0
0.8387096774193549 -0.7419354838709677 0.0
0.967741935483871 -0.7419354838709677 0.0
1.096774193548387 -0.7419354838709677 0.0
1.2258064516129032 -0.7419354838709677 0.0
1.3548387096774193 -0.7419354838709677 0.0
1.4838709677419355 -0.7419354838709677 0.0
1.6129032258064515 -0.7419354838709677 0.0
1.7419354838709677 -0.7419354838709677 0.0
1.8709677419354838 -0.7419354838709677 0.0
2.0 -0.7419354838709677 0.0
-1.8709677419354838 -0.6774193548387096 0.0
-2.0 -0.6774193548387096 0.0
-1.7419354838709677 -0.6774193548387096 0.0
-1.6129032258064515 -0.6774193548387096 0.0
-1.4838709677419355 -0.6774193548387096 0.0
-1.3548387096774193 -0.6774193548387096 0.0
-1.2258064516129032 -0.6774193548387096 0.0
-1.096774193548387 -0.6774193548387096 0.0
-0.967741935483871 -0.6774193548387096 0.0
-0.8387096774193549 -0.6774193548387096 0.0
-0.7096774193548387 -0.6774193548387096 0.0
-0.5806451612903226 -0.6774193548387096 0.0
-0.45161290322580644 -0.6774193548387096 0.0
-0.3225806451612903 -0.6774193548387096 0.0
-0.1935483870967742 -0.6774193548387096 0.0
-0.06451612903225806 -0.6774193548387096 0.0
0.06451612903225806 -0.6774193548387096 0.0
0.1935483870967742 -0.6774193548387096 0.0
0.3225806451612903 -0.6774193548387096 0.0
0.45161290322580644 -0.6774193548387096 0.0
0.5806451612903226 -0.6774193548387096 0.0
0.7096774193548387 -0.6774193548387096 0.0
0.8387096774193549 -0.6774193548387096 0.0
0.967741935483871 -0.6774193548387096 0.0
1.096774193548387 -0.6774193548387096 0.0
1.2258064516129032 -0.6774193548387096 0.0
1.3548387096774193 -0.6774193548387096 0.0
1.4838709677419355 -0.6774193548387096 0.0
1.6129032258064515 -0.6774193548387096 0.0
1.7419354838709677 -0.6774193548387096 0.0
1.8709677419354838 -0.6774193548387096 0.0
2.0 -0.6774193548387096 0.0
-1.8709677419354838 -0.6129032258064516 0.0
-2.0 -0.6129032258064516 0.0
-1.7419354838709677 -0.6129032258064516 0.0
-1.6129032258064515 -0.6129032258064516 0.0
-1.4838709677419355 -0.6129032258064516 0.0
-1.3548387096774193 -0.6129032258064516 0.0
-1.2258064516129032 -0.6129032258064516 0.0
-1.096774193548387 -0.6129032258064516 0.0
-0.967741935483871 -0.6129032258064516 0.0
-0.8387096774193549 -0.6129032258064516 0.0
-0.7096774193548387 -0.6129032258064516 0.0
-0.5806451612903226 -0.6129032258064516 0.0
-0.45161290322580644 -0.6129032258064516 0.0
-0.3225806451612903 -0.6129032258064516 0.0
-0.1935483870967742 -0.6129032258064516 0.0
-0.06451612903225806 -0.6129032258064516 0.0
0.06451612903225806 -0.6129032258064516 0.0
0.1935483870967742 -0.6129032258064516 0.0
0.3225806451612903 -0.6129032258064516 0.0
0.45161290322580644 -0.6129032258064516 0.0
0.5806451612903226 -0.6129032258064516 0.0
0.7096774193548387 -0.6129032258064516 0.0
0.8387096774193549 -0.6129032258064516 0.0
0.967741935483871 -0.6129032258064516 0.0
1.096774193548387 -0.6129032258064516 0.0
1.2258064516129032 -0.6129032258064516 0.0
1.3548387096774193 -0.6129032258064516 0.0
1.4838709677419355 -0.6129032258064516 0.0
1.6129032258064515 -0.6129032258064516 0.0
1.7419354838709677 -0.6129032258064516 0.0
1.8709677419354838 -0.6129032258064516 0.0
2.0 -0.6129032258064516 0.0
-1.8709677419354838 -0.5483870967741935 0.0
-2.0 -0.5483870967741935 0.0
-1.7419354838709677 -0.5483870967741935 0.0
-1.6129032258064515 -0.5483870967741935 0.0
-1.4838709677419355 -0.5483870967741935 0.0
-1.3548387096774193 -0.5483870967741935 0.0
-1.2258064516129032 -0.5483870967741935 0.0
-1.096774193548387 -0.5483870967741935 0.0
-0.967741935483871 -0.5483870967741935 0.0
-0.8387096774193549 -0.5483870967741935 0.0
-0.7096774193548387 -0.5483870967741935 0.0
-0.5806451612903226 -0.5483870967741935 0.0
-0.45161290322580644 -0.5483870967741935 0.0
-0.3225806451612903 -0.5483870967741935 0.0
-0.1935483870967742 -0.5483870967741935 0.0
-0.06451612903225806 -0.5483870967741935 0.0
0.06451612903225806 -0.5483870967741935 0.0
0.1935483870967742 -0.5483870967741935 0.0
0.3225806451612903 -0.5483870967741935 0.0
[...]
POINT_DATA 1024
SCALARS pressure double
LOOKUP_TABLE default
40.20493366785716
35.082192695506464
24.08452041562105
25.400756445034695
26.599042887613166
19.322746437127062
19.219749846244365
14.521657601458394
13.3995569583386
10.450050026475434
9.085640618880337
7.2817857874146
5.984076594822685
4.921668167736157
3.81564160397476
3.220629410390388
2.337805807622539
2.0290403165102555
1.3591850915009824
1.2185028561086317
0.7330940647160652
0.6855068367283794
0.3502733865049578
0.34974359137290395
0.1308406729827168
0.15047800921099694
0.01739575302298787
0.04267071029559094
-0.030727658361522726
-0.006565289809629186
-0.04204565136289737
-0.020984750983722947
-0.036521060726498265
-0.017694253769030405
-0.028347453958307827
-0.009158222822574297
-0.028093891010646806
-0.004808274955880842
-0.04436217276949909
-0.01233992135712642
-0.08508505479132476
-0.03877266360278565
-0.15856749483741267
-0.09133578485446132
-0.274345513461238
-0.1782246769171114
-0.44390720897917313
-0.30925341811955814
-0.6812993999807669
-0.49641516331396246
-1.0036216255264208
-0.7543569115434667
-1.4314845814636805
-1.1008247022608386
-1.9894891307820928
-1.5571482528768295
-2.7074938470510177
-2.1492565624845934
-3.6222985520466087
-2.9085463225235895
-4.784130618542784
-3.8751430467774077
-6.245551935639095
-5.077740195794325
16.033664004797487
16.28385227818056
13.619628055928448
10.66292112204977
7.942049004326884
5.699153499256394
3.958465994233369
2.660379002688379
1.7234343349029262
1.0678869077871176
0.6246052500619504
0.3370831960270298
0.16078889786752143
0.06149035599081928
0.013353008742573119
-0.002874733932188182
-0.0014667511324973966
0.006907677556727982
0.014024216162154953
0.013121802170032339
-0.0019391823705801829
-0.037411889081060044
-0.10031375332043341
-0.19900419342834527
-0.34368847649032513
-0.5468577115782733
-0.8236656215179633
-1.1924099644917368
-1.674906886087145
-2.297870829323673
-3.089884920948016
-4.084891292483113
10.355957521070959
10.31321163635466
9.260372089689843
7.576576050527093
5.8586925706271815
4.342389938095856
3.106364469982518
2.147577838936235
1.4317779631179466
0.9153205081317796
0.5556485490847444
0.31531924089944297
0.16319222358277535
0.07425582445686989
0.028897947566790153
0.011988578657680412
0.011949631625722492
0.019883533739278897
0.0287820141144724
0.03281234573279391
0.0266691930019811
0.004979921454683524
-0.038243315580037525
-0.11010382843564638
-0.21926369630014503
-0.3763268601421389
-0.5941497351732349
-0.8881665188194244
-1.2765205935097517
-1.78065748610927
-2.422699580609767
-3.230942238469051
6.407991765320536
6.377194057612459
6.019353782194923
5.168554370066228
4.169390917258044
3.205672221179507
2.369972075873493
1.6898912129464956
1.1615849700631515
0.7668481043871094
0.48291151167204244
0.28713271153614583
0.15914186619287998
0.08159295338409059
0.04022153718507058
0.023563272821279787
0.022523008736290616
0.02988837455126596
0.03983174647243196
0.04741792911151534
0.04812270842221583
0.03736405192344303
0.010050278746904838
-0.03984487510385868
-0.1196629723959273
-0.23837998091472182
-0.40683446383020844
-0.637883968118564
-0.946300170806183
-1.3487628167181915
-1.8617850839141123
-2.5058607797994834
3.7034571461944776
3.7504583185358737
3.6686535785108063
3.337135998523437
2.8330538779690344
2.275731658701521
1.7484921736522663
1.291364364995181
0.9180586431613094
0.6271635416291912
0.40997887646841513
0.25494096060196475
0.15007738339658025
0.08423680236657358
0.047625205999291764
0.03194662785254344
0.030323802068955616
0.037095818250865754
0.047545671228626976
0.05758540323520335
0.0634137349423769
0.06115637271277978
0.046500277572686786
0.014338195024797698
-0.04155222628551786
-0.1287634797117535
-0.2564006717031066
-0.4350720727165035
-0.6765710300219592
-0.9933544613408799
-1.3968584587718844
-1.898749502253614
1.8830975424066447
2.005751522328523
2.0083531041995695
1.9818485158891017
1.8035985667823384
1.5339499279902344
1.2367164140690365
0.952787129767857
0.7041790671379438
0.49956492091647386
0.33965231371899857
0.22079915338728553
0.1373400109272701
0.08296866979803783
0.05151679872023712
0.0373474312222463
0.03550653632861095
0.041719745971660505
0.05228651883683375
0.06390260202012756
0.07342990856870425
0.07762808712973074
0.07286269104502796
0.054810113409326795
0.018189163655257377
-0.043437284930798244
-0.13772610373090308
-0.2733976999721434
-0.4597160600298072
-0.7055330331574747
-1.0176104718861279
-1.3994419222155734
0.6909313341858402
0.8635038442111062
0.872409917732428
1.0102112523694178
1.0339180233694925
0.9585608191559867
0.8262520591306117
0.6723777231464049
0.5210671978855573
0.38612345933539055
0.274002029023132
0.18638591751805988
0.12212667756704627
0.07856054042316811
0.052358605709328904
0.04004435560546265
0.03828100732485759
0.043997984782247375
0.0544018709777763
0.06690085138950663
0.07896195094627081
0.08791609816157553
0.09072674338852534
0.08374365474892645
0.062475268503751555
0.02143300536973218
-0.04587191752301744
-0.14665261914527777
-0.2881500562669357
-0.4762704847416368
-0.7137511338988519
-0.9968868613623303
-0.056280335725802086
0.13995943177777245
0.12837877115547006
0.34095634679634906
0.4787996969249593
0.526450998716332
0.5065864918649241
0.44637907949443595
0.3683000405034813
0.287829426195887
0.2144141999353701
0.1529973647581506
0.10545921893701117
0.07173692064794918
0.050631582061544535
0.0403571836347861
0.0388918448941729
0.044179576154853316
0.05421742229781009
0.0670519682371092
0.08070189374106093
0.09301984825358635
0.10150780583639529
0.1031065531538139
0.0939936149375536
0.06945000692654883
0.023889970596627844
-0.04878152544419659
-0.15433150117552566
-0.2964604155775827
-0.47472720945418484
-0.6794310700799616
-0.48998930208331376
-0.29069701815469384
-0.32737684388937044
-0.09499622454760605
0.09669089386786897
0.2145616127169591
0.26601709238645677
0.26963107950227033
0.24424000373429186
0.2047641523217369
0.16166504613223465
0.12156384859578934
0.08817106189604662
0.06314904943895512
0.04680775262325031
0.03862319864240699
0.037601379014819206
0.042514470500808
0.05203252532964243
0.06476784897344756
0.07924435232957525
0.09380152759225796
0.10644357208756611
0.11465082933844578
0.1151856241715335
0.10395591558102019
0.0760410040134711
0.026080115044965844
-0.05080214242180422
-0.15692784895600376
-0.2897149701747565
-0.43481646173759825
-0.7053889472787419
-0.5166127612343743
-0.5750638516904729
-0.35506727773497665
-0.1494106061030466
0.0008662455898784421
0.09239787916813949
0.13606940875643128
0.1463413275698673
0.1362719667879337
0.11600468155227722
0.09267979651350616
0.07090689651238112
0.05336036621516636
0.041331523673241166
0.035180119136178835
0.03467700609260501
0.03924613672843023
0.048117523024617075
0.060401069420861674
0.07508819207338448
0.09098593891966585
0.1065886866039258
0.11989846129990496
0.12821993728687706
0.12799138883544503
0.11476074545711554
0.08353983844771504
0.029743615856318333
-0.048488988928871705
-0.1476540573086441
-0.25033218897345694
-0.7721146169232106
-0.6013258370526945
-0.6764964207645899
-0.48627547578051966
-0.29170693181820695
-0.1350158167087419
-0.02629455359561631
0.03914478622424994
0.07142753833265843
0.08112752647677345
0.07724716960835508
0.06664359420243152
0.05413272791169619
0.042841053429839154
0.034608198380901636
0.03035439766798366
0.03038241919283227
0.03460699372649739
0.04271331059557643
0.0542474636063828
0.06864006746318115
0.08516197603341348
0.10281015966554229
0.12012591402551465
0.13496095432455607
0.1442437900210363
0.14385281869156355
0.12885412577722788
0.09435227419528436
0.03794562331844245
-0.03735413525145489
-0.11295628910171361
-0.7417516605074306
-0.5918517714316347
-0.6793120227745604
-0.5267635118180429
-0.35776051602701703
-0.21149886517831476
-0.10156260573886662
-0.02784285869602329
0.015931154967402363
0.037690680651948034
0.04486075717894198
0.04350322837708091
0.03815341581801697
0.03196981663996683
0.026998609372658886
0.024454301753910238
0.024972441737512806
0.028816607149204424
0.03603321636524779
0.04655090998204483
0.06022022397914397
0.07678628462601676
0.09578427672242096
0.11634820378294711
0.13693287510222593
0.15498407775389147
0.16664967293458535
0.1668011871011632
0.14966031133096744
0.11121172840398867
0.05234635121408491
-0.009530147921889116
-0.6530774610505234
-0.5239757078862564
-0.6203558942775853
-0.507321811534325
-0.37088977082662344
-0.24492556742981625
-0.14413183397389956
-0.0714911496126735
-0.023907131247978695
0.0040445753884260785
0.018054259213658302
0.023104410419342924
0.023135213924469523
0.02104110627484832
0.018818634711078648
0.017766982375017233
0.01869101181656743
0.02208247847479224
0.02826728824660822
0.037510692549089654
0.05007126292153961
0.0661901932821553
0.08599648057205386
0.10930423313560357
0.1352808500667643
0.16199310324022498
0.18589494216645114
0.20151623318923245
0.20168995076657723
0.1796672407994158
0.13235816975821926
0.07303465367791816
-0.5357607583536012
-0.42575493013951365
-0.5283275747087842
-0.45277991069055407
-0.35067580655643665
-0.24960960370976662
-0.16380955154991464
-0.0981146760544513
-0.05187970477980481
-0.021885641549220597
-0.004143520405464055
0.0051384170227263964
0.009131123751483282
0.010276166405158512
0.0103424628542178
0.010558770197579892
0.011771843436696456
0.014603185887022658
0.01958897187690644
0.027291693263330506
0.038370484970616424
0.053590999852754576
0.07374585537809429
0.09944550085946308
0.13073144387596658
0.1664787294057338
0.2036025209215011
0.2362841079885032
0.2555811046745364
0.2508884357950076
0.21304154944818102
0.14749644005550408
-0.41299119425802494
-0.3198986380742045
-0.42582507605636144
-0.3832144118392146
-0.3135001198108848
-0.2379713861575762
-0.1694301816352209
-0.11362606406610458
-0.07169100458135169
-0.04223431863322538
-0.02281329134753552
-0.010812435243089225
-0.0038927465931489044
-0.00016351958160442092
0.0018085378605991332
0.003077931681408682
0.004441238112524443
0.006573558595774981
0.01016408164260649
0.016037604677379365
0.02524641764180967
0.03910880854326969
0.05915616372233738
0.08693092754282968
0.1235556166498544
0.16898643341552733
0.220892490414255
0.2732840930212557
0.3152464851721165
0.33126590750877616
0.3038032787663829
0.22594732851574087
-0.3033665114738327
-0.22541309775211837
-0.3309131246323365
-0.3149659839960246
-0.2730652771228873
-0.22072568700081077
-0.16886275908698017
-0.12346696742280668
-0.0868699975402533
-0.05911647227889018
-0.03908472060180474
-0.02523315669373787
-0.016031259654834828
-0.010161609958348966
-0.006572786942000946
-0.004440862088784083
-0.0030775148902356373
-0.0018085108533488388
0.00016186025709397813
0.003887239031504376
0.01080005227846438
0.022790139842661702
0.042195637718247206
0.07163116282774899
0.1135385564360846
0.1693076288523853
0.23780554354025207
0.3132819070405952
0.38293398663691297
0.4254719616109088
0.41255449778360015
0.31936728150839466
-0.22225866097969518
-0.15876018229447453
-0.25832270313641836
-0.26147849925971234
-0.2408726476322269
-0.2070918543399479
-0.16906007826490382
-0.13257764757170873
-0.10071109376516033
-0.07456712983919651
-0.05408604648446926
-0.038639214807576185
-0.027415848249190983
-0.019632128852058565
-0.01461075729102197
-0.011771076562508505
-0.010558745973042741
-0.010334094661563355
-0.010232199216200267
-0.009006133742979152
-0.004868811748360506
0.0046395013823242485
0.022707926095952527
0.05314638924952504
0.09996203149765252
0.1663920421971804
0.25309992849349283
0.35526498072105234
0.45867738117889384
0.5357614194770198
0.5449776593837677
0.43702104349516446
-0.18281089357386304
-0.13468654918805983
-0.22036729791195955
-0.2339817003332739
-0.22664531113458328
-0.205006792939427
-0.17613324836211708
-0.14539494770490466
-0.11623823723874217
-0.09049673583299093
-0.06890349473071732
-0.05154488521262681
-0.03819240292421809
-0.02850535074261869
-0.022125654164838734
-0.018688557508208234
-0.01776864899628963
-0.018774665971610482
-0.02080223788515997
-0.022452673490982573
-0.021629917967887578
-0.015340027938542682
0.00045668852324855957
0.030842232739828987
0.0816064183399769
0.15827316068697206
0.2640384716137051
0.39601955032164954
0.5396136473474487
0.6610553593164658
0.7035294251514917
0.5856289578598388
-0.19667078391103895
-0.16682669552697765
-0.2276420820492592
-0.24204050187934434
-0.23869278611506456
-0.22132802494102646
-0.1954393204211584
-0.1658699426648471
-0.13618710314413945
-0.10866020539717128
-0.0845497078392279
-0.06443690753405709
-0.048501933942302074
-0.0367149784091328
-0.02894082183940304
-0.02496613841840365
-0.02445982243996348
-0.026873607215786553
-0.03128725523942251
-0.03620156944961052
-0.03928568302268111
-0.037096411740869986
-0.0248137468480675
0.003908848471212477
0.056781123829915764
0.14201908766670543
0.2661783653185984
0.42965292697753
0.6191438300879045
0.7957415623919756
0.8860745454584859
0.7682084197093285
-0.27453241487091873
-0.26814889593006935
-0.2895565067201938
-0.29399260566017943
-0.2842190344224775
-0.2620192699565822
-0.23167296869052073
-0.19749810842130458
-0.1630007915218154
-0.13063713351226097
-0.10194013522264526
-0.07775324837878218
-0.05846426213839194
-0.04418708330365855
-0.0348758555433207
-0.030369240247224014
-0.03036680056887535
-0.03433855645815321
-0.04136649014839914
-0.04991511750656882
-0.05752956341300142
-0.06046809981093565
-0.053299554714128485
-0.028551551709852487
0.023393595745848254
0.11372504381356151
0.2531835438969945
0.4470728158410169
0.6859160380438316
0.9281062574582235
1.083998642871604
0.9824287183924048
-0.42653925068249576
-0.45129129222703335
-0.4147383249987087
-0.3972933925426243
-0.36957766648367835
-0.33231452699444175
-0.2889558928597072
-0.24335634323560174
-0.19883500277161803
-0.1578207584011307
-0.12187619626515304
-0.0918665738924009
-0.0681648062383661
-0.050831134475461774
-0.03974142709451349
-0.03465305979314886
-0.03520329731648817
-0.04083546219577829
-0.05064597519551449
-0.06314236143273812
-0.07590058086942439
-0.08511353039209883
-0.08503891008044384
-0.06740367701339844
-0.02093174576978999
0.06856801752211962
0.21668897021350966
0.4354496345002218
0.7226174876007689
1.0382899351687118
1.279578643882123
1.218231245516329
-0.6625838107925518
-0.7288217747585839
-0.6113373754761482
-0.5587839798827963
-0.5004793179401523
-0.43685900360704305
-0.3709197000767207
-0.30614250343538413
-0.2455693266634813
-0.19141347655921145
-0.14503399326754274
-0.10707190577051665
-0.07764439021081199
-0.05653332031165242
-0.04333614395760896
-0.03756190841999749
-0.03866191005340159
-0.04598531841523224
-0.05864748797892186
-0.07529373919004971
-0.09373548202213382
-0.11043170982850316
-0.11979328407925656
-0.11332040653683613
-0.07867292150143286
0.0009481662294429503
0.1462580033933719
0.3777098002705837
0.7045831249285969
1.0956407848682792
1.4422833983907093
1.4543269560737826
-0.9925296505851245
-1.1134447192934085
-0.887249684948557
-0.7848955053093591
-0.6821564177000131
-0.5798267813496549
-0.480779621365669
-0.38821426058320574
-0.3048219121351894
-0.23242696348014708
-0.17195738210450218
-0.12357785726662085
-0.0868918824774245
-0.061152262122908585
-0.0454457601486141
-0.03883122770411121
-0.04041705107050091
-0.049364648588111515
-0.06480132921204627
-0.08561854317220464
-0.11012061390792084
-0.1354758263969409
-0.15690933693553458
-0.1665836054250172
-0.15215715002184432
-0.09525533561826793
0.029487617879145674
0.2521400837610782
0.5982719573606603
1.0553302224627181
1.5235316153186615
1.6529041561065203
-1.4263696836210031
-1.6181754823256502
-1.2502767578362604
-1.081800006502399
-0.9194903682399528
-0.7650160083679117
-0.6213975851425708
-0.4916250320786317
-0.3779653830342212
-0.28168525127946414
-0.20305430354927956
-0.14150082707383252
-0.0958394077039853
-0.06451713257033424
-0.04584497928507074
-0.03819275571692256
-0.040131866646093056
-0.0505108732285656
-0.06844454329784913
-0.09318738245070698
-0.12384628493519853
-0.15886302314342915
-0.1951640644955711
-0.22684443521815517
-0.24322669385374876
-0.22628589568716556
-0.14767090794555
0.03222718648403273
0.35974083631221276
0.8541367530504689
1.449183499794466
1.7515417984018335
-1.9743334464796714
-2.2564812526412474
-1.7082290670818474
-1.4555173222452302
-1.2171058868977174
-0.9959231622716638
-0.7953341144520981
-0.6181555424101267
-0.46614237668298236
-0.33982935793948754
-0.23859533137534486
-0.16086147452234148
-0.10435977452787548
-0.06642809599508796
-0.04430202339809111
-0.03538329668140226
-0.037469938138773314
-0.04893379398840244
-0.06882637349497392
-0.09688212461809284
-0.13336686727609057
-0.17868431849202784
-0.2325974294105982
-0.29284583969078026
-0.35281954636668966
-0.3979434497815886
-0.400298565067149
-0.31309241729090664
-0.06661225236343615
0.40540938592256004
1.1088406981675842
1.6501500455036966
-2.646916959988308
-3.042434210486252
-2.2689849343216513
-1.9119833037834466
-1.5794363543328973
-1.2757975579542167
-1.0048889089236914
-0.7693401114480127
-0.5702796101891323
-0.40732248887288564
-0.2787137055733715
-0.18158299826078725
-0.1122658504377727
-0.06665896723838764
-0.04058602194194185
-0.03015735490968089
-0.032112347564506864
-0.044134283658433505
-0.0651228026234577
-0.09539624792135902
-0.1367710159076252
-0.19242084715999375
-0.26634057643484443
-0.3621163475248597
-0.48047090388177544
-0.6148382705973777
-0.7435312517268532
-0.8185425711264296
-0.7485777195102301
-0.40631224424154305
0.34031472012442826
1.1906984295416807
-3.454886520429282
-3.990701721901277
-2.9405052879731737
-2.4570944859032857
-2.010765076082571
-1.6076799157869452
-1.2521314336468927
-0.9464876234939202
-0.6910995159281585
-0.4844544860407103
-0.3234054993736499
-0.20349006543299256
-0.11931106620364931
-0.0649616984687101
-0.03447732234182026
-0.022304267687906634
-0.023781286541507747
-0.035631874804662164
-0.056462310028433785
-0.08724806675307802
-0.13176471907768472
-0.1968694416701687
-0.2924432540457346
-0.43063985605648303
-0.6237397014072471
-0.8794594030903645
-1.1911559044465672
-1.520739131939219
-1.7651552595780713
-1.7300822417786872
-1.091320703209267
0.11933673268102366
-4.408949704603455
-5.116841783883947
-3.730870421478086
-3.096701505717335
-2.5152407393983203
-1.9944196108483732
-1.5389197305032125
-1.1506962599736066
-0.8291297375440927
-0.5713465678672155
-0.37253138160268573
-0.22630983120629575
-0.12519206996543752
-0.06107299857580016
-0.025780202174398137
-0.011668645853610776
-0.012268832612028747
-0.023000564444378927
-0.04196415682325894
-0.07081185640765426
-0.11567799916168141
-0.18809651026256818
-0.3057300327184436
-0.4925437265095333
-0.7776169956096176
-1.1911166204387718
-1.7538184746702647
-2.4552823010296025
-3.2033479381345686
-3.748838856916268
-3.5242983751573753
-1.9654648647135986
-5.51996287027916
-6.435609561256758
-4.648282051809283
-3.836649959810108
-3.0968921317294775
-2.4386982922094775
-1.8669196365511458
-1.3828660644956148
-0.9847075986432468
-0.667949512303043
-0.4258114421820873
-0.2496669284443447
-0.12954750918088184
-0.05472039719265363
-0.014339258212584074
0.0018208079203405213
0.002521432570201794
-0.005920694757974573
-0.02079348547412815
-0.0443625662998842
-0.08547654482884798
-0.16138147953219573
-0.29962331086933425
-0.5397223209338252
-0.9338242906780041
-1.544688501485842
-2.436789054271589
-3.6527462323069626
-5.1513609098297
-6.673472967919016
-7.423803428611465
-5.7633896786824526
-6.796843842005941
-7.962568915906939
-5.701454055316086
-4.682467499280838
-3.759566465934679
-2.9429654684784117
-2.2375868916740513
-1.6436963099766257
-1.1579895354419294
-0.7740584153639783
-0.4828420200645755
-0.2730998705541359
-0.13197286740650205
-0.04563574588790886
-5.345659138146698e-5
0.018133051236211204
0.020546726873260503
0.015777715280510786
0.007774006997082021
-0.006164586154764248
-0.03787048069910659
-0.11132848876969015
-0.2662191871824849
-0.5617966702268373
-1.080516878478245
-1.9297228961917006
-3.2379925826067644