# vtk DataFile Version 3.0

ASCII

DATASET UNSTRUCTURED_GRID
FIELD FieldData 1
TIME 1 1 double
0.0
POINTS 1024 float
-2.0 -1.0 0.0
-1.8709677419354838 -1.0 0.0
-1.8709677419354838 -0.9354838709677419 0.0
-2.0 -0.9354838709677419 0.0
-1.7419354838709677 -1.0 0.0
-1.7419354838709677 -0.9354838709677419 0.0
-1.6129032258064515 -1.0 0.0
-1.6129032258064515 -0.9354838709677419 0.0
-1.4838709677419355 -1.0 0.0
-1.4838709677419355 -0.9354838709677419 0.0
-1.3548387096774193 -1.0 0.0
-1.3548387096774193 -0.9354838709677419 0.0
-1.2258064516129032 -1.0 0.0
-1.2258064516129032 -0.9354838709677419 0.0
-1.096774193548387 -1.0 0.0
-1.096774193548387 -0.9354838709677419 0.0
-0.967741935483871 -1.0 0.0
-0.967741935483871 -0.9354838709677419 0.0
-0.8387096774193549 -1.0 0.0
-0.8387096774193549 -0.9354838709677419 0.0
-0.7096774193548387 -1.0 0.0
-0.7096774193548387 -0.9354838709677419 0.0
-0.5806451612903226 -1.0 0.0
-0.5806451612903226 -0.9354838709677419 0.0
-0.45161290322580644 -1.0 0.0
-0.45161290322580644 -0.9354838709677419 0.0
-0.3225806451612903 -1.0 0.0
-0.3225806451612903 -0.9354838709677419 0.0
-0.1935483870967742 -1.0 0.0
-0.1935483870967742 -0.9354838709677419 0.0
-0.06451612903225806 -1.0 0.0
-0.06451612903225806 -0.9354838709677419 0.0
0.06451612903225806 -1.0 0.0
0.06451612903225806 -0.9354838709677419 0.0
0.1935483870967742 -1.0 0.0
0.1935483870967742 -0.9354838709677419 0.0
0.3225806451612903 -1.0 0.0
0.3225806451612903 -0.9354838709677419 0.0
0.45161290322580644 -1.0 0.0
0.45161290322580644 -0.9354838709677419 0.0
0.5806451612903226 -1.0 0.0
0.5806451612903226 -0.9354838709677419 0.0
0.7096774193548387 -1.0 0.0
0.7096774193548387 -0.9354838709677419 0.0
0.8387096774193549 -1.0 0.0
0.8387096774193549 -0.9354838709677419 0.0
0.967741935483871 -1.0 0.0
0.967741935483871 -0.9354838709677419 0.0
1.096774193548387 -1.0 0.0
1.096774193548387 -0.9354838709677419 0.0
1.2258064516129032 -1.0 0.0
1.2258064516129032 -0.9354838709677419 0.0
1.3548387096774193 -1.0 0.0
1.3548387096774193 -0.9354838709677419 0.0
1.4838709677419355 -1.0 0.0
1.4838709677419355 -0.9354838709677419 0.0
1.6129032258064515 -1.0 0.0
1.6129032258064515 -0.9354838709677419 0.0
1.7419354838709677 -1.0 0.0
1.7419354838709677 -0.9354838709677419 0.0
1.8709677419354838 -1.0 0.0
1.8709677419354838 -0.9354838709677419 0.0
2.0 -1.0 0.0
2.0 -0.9354838709677419 0.0
-1.8709677419354838 -0.8709677419354839 0.0
-2.0 -0.8709677419354839 0.0
-1.7419354838709677 -0.8709677419354839 0.0
-1.6129032258064515 -0.8709677419354839 0.0
-1.4838709677419355 -0.8709677419354839 0.0
-1.3548387096774193 -0.8709677419354839 0.0
-1.2258064516129032 -0.8709677419354839 0.0
-1.096774193548387 -0.8709677419354839 0.0
-0.967741935483871 -0.8709677419354839 0.0
-0.8387096774193549 -0.8709677419354839 0.0
-0.7096774193548387 -0.8709677419354839 0.0
-0.5806451612903226 -0.8709677419354839 0.0
-0.45161290322580644 -0.8709677419354839 0.0
-0.3225806451612903 -0.8709677419354839 0.0
-0.1935483870967742 -0.8709677419354839 0.0
-0.06451612903225806 -0.8709677419354839 0.0
0.06451612903225806 -0.8709677419354839 0.0
0.1935483870967742 -0.8709677419354839 0.0
0.3225806451612903 -0.8709677419354839 0.0
0.45161290322580644 -0.8709677419354839 0.0
0.5806451612903226 -0.8709677419354839 0.0
0.7096774193548387 -0.8709677419354839 0.0
0.8387096774193549 -0.8709677419354839 0.0
0.967741935483871 -0.8709677419354839 0.0
1.096774193548387 -0.8709677419354839 0.0
1.2258064516129032 -0.8709677419354839 0.0
1.3548387096774193 -0.8709677419354839 0.0
1.4838709677419355 -0.8709677419354839 0.0
1.6129032258064515 -0.8709677419354839 0.0
1.7419354838709677 -0.8709677419354839 0.0
1.8709677419354838 -0.8709677419354839 0.0
2.0 -0.8709677419354839 0.0
-1.8709677419354838 -0.8064516129032258 0.0
-2.0 -0.8064516129032258 0.0
-1.7419354838709677 -0.8064516129032258 0.0
-1.6129032258064515 -0.8064516129032258 0.0
-1.4838709677419355 -0.8064516129032258 0.0
-1.3548387096774193 -0.8064516129032258 0.0
-1.2258064516129032 -0.8064516129032258 0.0
-1.096774193548387 -0.8064516129032258 0.0
-0.967741935483871 -0.8064516129032258 0.0
-0.8387096774193549 -0.8064516129032258 0.0
-0.7096774193548387 -0.8064516129032258 0.0
-0.5806451612903226 -0.8064516129032258 0.0
-0.45161290322580644 -0.8064516129032258 0.0
-0.3225806451612903 -0.8064516129032258 0.0
-0.1935483870967742 -0.8064516129032258 0.0
-0.06451612903225806 -0.8064516129032258 0.0
0.06451612903225806 -0.8064516129032258 0.0
0.1935483870967742 -0.8064516129032258 0.0
0.3225806451612903 -0.8064516129032258 0.0
0.45161290322580644 -0.8064516129032258 0.0
0.5806451612903226 -0.8064516129032258 0.0
0.7096774193548387 -0.8064516129032258 0.0
0.8387096774193549 -0.8064516129032258 0.0
0.967741935483871 -0.8064516129032258 0.0
1.096774193548387 -0.8064516129032258 0.0
1.2258064516129032 -0.8064516129032258 0.0
1.3548387096774193 -0.8064516129032258 0.0
1.4838709677419355 -0.8064516129032258 0.0
1.6129032258064515 -0.8064516129032258 0.0
1.7419354838709677 -0.8064516129032258 0.0
1.8709677419354838 -0.8064516129032258 0.0
2.0 -0.8064516129032258 0.0
-1.8709677419354838 -0.7419354838709677 0.0
-2.0 -0.7419354838709677 0.0
-1.7419354838709677 -0.7419354838709677 0.0
-1.6129032258064515 -0.7419354838709677 0.0
-1.4838709677419355 -0.7419354838709677 0.0
-1.3548387096774193 -0.7419354838709677 0.0
-1.2258064516129032 -0.7419354838709677 0.0
-1.096774193548387 -0.7419354838709677 0.0
-0.967741935483871 -0.7419354838709677 0.0
-0.8387096774193549 -0.7419354838709677 0.0
-0.7096774193548387 -0.7419354838709677 0.0
-0.5806451612903226 -0.7419354838709677 0.0
-0.45161290322580644 -0.7419354838709677 0.0
-0.3225806451612903 -0.7419354838709677 0.0
-0.1935483870967742 -0.7419354838709677 0.0
-0.06451612903225806 -0.7419354838709677 0.0
0.06451612903225806 -0.7419354838709677 0.0
0.1935483870967742 -0.7419354838709677 0.0
0.3225806451612903 -0.7419354838709677 0.0
0.45161290322580644 -0.7419354838709677 0.0
0.5806451612903226 -0.7419354838709677 0.0
0.7096774193548387 -0.7419354838709677 0.0
0.8387096774193549 -0.7419354838709677 0.0
0.967741935483871 -0.7419354838709677 0.0
1.096774193548387 -0.7419354838709677 0.0
1.2258064516129032 -0.7419354838709677 0.0
1.3548387096774193 -0.7419354838709677 0.0
1.4838709677419355 -0.7419354838709677 0.0
1.6129032258064515 -0.7419354838709677 0.0
1.7419354838709677 -0.7419354838709677 0.0
1.8709677419354838 -0.7419354838709677 0.0
2.0 -0.7419354838709677 0.0
-1.8709677419354838 -0.6774193548387096 0.0
-2.0 -0.6774193548387096 0.0
-1.7419354838709677 -0.6774193548387096 0.0
-1.6129032258064515 -0.6774193548387096 0.0
-1.4838709677419355 -0.6774193548387096 0.0
-1.3548387096774193 -0.6774193548387096 0.0
-1.2258064516129032 -0.6774193548387096 0.0
-1.096774193548387 -0.6774193548387096 0.0
-0.967741935483871 -0.6774193548387096 0.0
-0.8387096774193549 -0.6774193548387096 0.0
-0.7096774193548387 -0.6774193548387096 0.0
-0.5806451612903226 -0.6774193548387096 0.0
-0.45161290322580644 -0.6774193548387096 0.0
-0.3225806451612903 -0.6774193548387096 0.0
-0.1935483870967742 -0.6774193548387096 0.0
-0.06451612903225806 -0.6774193548387096 0.0
0.06451612903225806 -0.6774193548387096 0.0
0.1935483870967742 -0.6774193548387096 0.0
0.3225806451612903 -0.6774193548387096 0.0
0.45161290322580644 -0.6774193548387096 0.0
0.5806451612903226 -0.6774193548387096 0.0
0.7096774193548387 -0.6774193548387096 0.0
0.8387096774193549 -0.6774193548387096 0.0
0.967741935483871 -0.6774193548387096 0.0
1.096774193548387 -0.6774193548387096 0.0
1.2258064516129032 -0.6774193548387096 0.0
1.3548387096774193 -0.6774193548387096 0.0
1.4838709677419355 -0.6774193548387096 0.0
1.6129032258064515 -0.6774193548387096 0.0
1.7419354838709677 -0.6774193548387096 0.0
1.8709677419354838 -0.6774193548387096 0.0
2.0 -0.6774193548387096 0.0
-1.8709677419354838 -0.6129032258064516 0.0
-2.0 -0.6129032258064516 0.0
-1.7419354838709677 -0.6129032258064516 0.0
-1.6129032258064515 -0.6129032258064516 0.0
-1.4838709677419355 -0.6129032258064516 0.0
-1.3548387096774193 -0.6129032258064516 0.0
-1.2258064516129032 -0.6129032258064516 0.0
-1.096774193548387 -0.6129032258064516 0.0
-0.967741935483871 -0.6129032258064516 0.0
-0.8387096774193549 -0.6129032258064516 0.0
-0.7096774193548387 -0.6129032258064516 0.0
-0.5806451612903226 -0.6129032258064516 0.0
-0.45161290322580644 -0.6129032258064516 0.0
-0.3225806451612903 -0.6129032258064516 0.0
-0.1935483870967742 -0.6129032258064516 0.0
-0.06451612903225806 -0.6129032258064516 0.0
0.06451612903225806 -0.6129032258064516 0.0
0.1935483870967742 -0.6129032258064516 0.0
0.3225806451612903 -0.6129032258064516 0.0
0.45161290322580644 -0.6129032258064516 0.0
0.5806451612903226 -0.6129032258064516 0.0
0.7096774193548387 -0.6129032258064516 0.0
0.8387096774193549 -0.6129032258064516 0.0
0.967741935483871 -0.6129032258064516 0.0
1.096774193548387 -0.6129032258064516 0.0
1.2258064516129032 -0.6129032258064516 0.0
1.3548387096774193 -0.6129032258064516 0.0
1.4838709677419355 -0.6129032258064516 0.0
1.6129032258064515 -0.6129032258064516 0.0
1.7419354838709677 -0.6129032258064516 0.0
1.8709677419354838 -0.6129032258064516 0.0
2.0 -0.6129032258064516 0.0
-1.8709677419354838 -0.5483870967741935 0.0
-2.0 -0.5483870967741935 0.0
-1.7419354838709677 -0.5483870967741935 0.0
-1.6129032258064515 -0.5483870967741935 0.0
-1.4838709677419355 -0.5483870967741935 0.0
-1.3548387096774193 -0.5483870967741935 0.0
-1.2258064516129032 -0.5483870967741935 0.0
-1.096774193548387 -0.5483870967741935 0.0
-0.967741935483871 -0.5483870967741935 0.0
-0.8387096774193549 -0.5483870967741935 0.0
-0.7096774193548387 -0.5483870967741935 0.0
-0.5806451612903226 -0.5483870967741935 0.0
-0.45161290322580644 -0.5483870967741935 0.0
-0.3225806451612903 -0.5483870967741935 0.0
-0.1935483870967742 -0.5483870967741935 0.0
-0.06451612903225806 -0.5483870967741935 0.0
0.06451612903225806 -0.5483870967741935 0.0
0.1935483870967742 -0.5483870967741935 0.0
0.3225806451612903 -0.5483870967741935 0.0
[...]
POINT_DATA 1024
SCALARS pressure double
LOOKUP_TABLE default
8.016508672967053
6.5163173846321625
5.3435706383294255
6.520364775042936
5.262776040670992
4.304456014600776
4.17313859128813
3.4159140428611203
3.24817809328876
2.6578388626986627
2.470210862648834
2.0214721736917176
1.8276588496112873
1.4955782613064592
1.307234755713381
1.0697414382249784
0.8961848811275932
0.7333728567650629
0.5816051222680688
0.47595129807508424
0.35063881523855195
0.2869449324707634
0.1904168375995102
0.15582829295015602
0.08807502243267652
0.07207530145254526
0.030748838285591683
0.025160268381719336
0.005574788490470081
0.004557189065669436
-0.0003102251453857695
-0.00026019377515918096
0.00023105116917759226
0.0001815841683400953
-0.005663984089851563
-0.004644229832098344
-0.030857902267371642
-0.025264547441956376
-0.08821335340837949
-0.07220637235308112
-0.19059306821687094
-0.15599676249067093
-0.3508600452495756
-0.28716276402733015
-0.5818770573752352
-0.4762315664462396
-0.8965084510978129
-0.7337302084625094
-1.3076147225042831
-1.0701872030816735
-1.8280716800888157
-1.4961290721005354
-2.470710058880428
-2.0220947116269725
-3.2485228966971738
-2.6585995936120237
-4.173993170796864
-3.4162626950368904
-5.261401848955286
-4.305504904940503
-6.519395111898075
-5.3375904188732015
-7.979541647516122
-6.523117039602815
4.30960676557913
5.259841082947114
3.4737847411262166
2.756137974462089
2.144561156123655
1.6310176288691962
1.20669000326961
0.8630926435907631
0.5916951349367167
0.3839987915246587
0.23150481750687782
0.12571858825570262
0.05814631924320691
0.020294974454811706
0.003671769643110011
-0.00021595621981218715
0.00013915506588434726
-0.003755559478723366
-0.020392803179519373
-0.058265322912785585
-0.1258659128476016
-0.2316874271407947
-0.3842228484593359
-0.5919654158883676
-0.8634089749612752
-1.2070487506714591
-1.631381851445005
-2.1449158413227365
-2.7561496762517277
-3.4737148928031827
-4.305876224643482
-5.262117064936139
3.4192460895287216
4.172300140005122
2.7565897536920674
2.1870792069727916
1.7017552667770104
1.294223407043697
0.9575063644088928
0.6848564498647933
0.469502195225211
0.3046963544107881
0.1836939117716755
0.09975363497986858
0.04613548614183882
0.0161002183866148
0.002908909083728231
-0.00017721317215099117
0.00010312482309093117
-0.0029888039851819087
-0.01619174565423838
-0.04624447054060222
-0.09988577917573906
-0.18385452703909122
-0.3048896834845247
-0.469730512974917
-0.6851167540114872
-0.9577897579383238
-1.294491471558787
-1.701975285112501
-2.186975665348012
-2.75634417398192
-3.416484112294185
-4.17497744547993
2.6606173062603515
3.247411634748721
2.14549896696662
1.7022185245515091
1.3244968354706848
1.007292124583651
0.7452179455736886
0.5330112836847682
0.36540198107123517
0.23713582879395945
0.14296210953900143
0.07763333096439673
0.035903407376669264
0.012527107539643529
0.0022596338247862723
-0.0001435811110638174
7.300563433835831e-5
-0.002335015385796667
-0.012612038861888332
-0.036002463024257796
-0.07775070490607494
-0.14310123492265028
-0.23729862627409298
-0.36558774922955123
-0.5332138061289664
-0.7454235994096475
-1.0074632700343626
-1.3245904297662143
-1.7020331651543847
-2.145134668797141
-2.658732528122577
-3.249114031647182
2.0235125248948673
2.4700796338850233
1.6319324752625979
1.294792495841738
1.0074836579674344
0.7661934750810636
0.5668421195518057
0.4054257279194723
0.2779346558786664
0.18037085578766027
0.10873947178651311
0.05904846094438958
0.027307152450789938
0.009525723632837315
0.0017148144090622399
-0.00011467448366202736
4.8297130811254144e-5
-0.001785158264779617
-0.009603893502417202
-0.02739674927722143
-0.05915257236134847
-0.10886024806595025
-0.18050874259483338
-0.27808725540347956
-0.4055852224617281
-0.5669932514322502
-0.7663010129775448
-1.0075062540468946
-1.2945792679154373
-1.6315761509412532
-2.022142448179135
-2.4712073988330028
1.4971244720418604
1.827783555267547
1.207536176533227
0.958094798078037
0.7455081744939275
0.566957455155461
0.41944108677927144
0.2999968941751479
0.20565798608164756
0.13346499738748904
0.0804612020420196
0.04369216557223711
0.020204700652853767
0.007046412183296443
0.001265365929441402
-9.009904695298575e-5
2.851364301449362e-5
-0.0013302099695663868
-0.007117633961841489
-0.02028509700148621
-0.043783930505250306
-0.08056548506463458
-0.1335811585486208
-0.205782502114356
-0.30012117034748853
-0.4195495747334267
-0.5670188298099317
-0.7454855919826501
-0.9578813156774312
-1.2072063488440001
-1.4961306824390708
-1.8284295882297639
1.070887622257988
1.3075442121126866
0.8638218028737682
0.685401321951604
0.5333319074453541
0.4055979062433305
0.30006447030397293
0.21461411340498449
0.1471248428196195
0.09547904737145654
0.05756104410317378
0.031256905963557104
0.014453762104659436
0.005039439187624475
0.0009021926329215436
-6.945662199673318e-5
1.3173555492383299e-5
-0.0009611370014677582
-0.005103549081195475
-0.014525187402781883
-0.03133715563329094
-0.05765055324910361
-0.09557648577491135
-0.14722612096353196
-0.21471059070004855
-0.30014138492885656
-0.4056284756925352
-0.5332853094184851
-0.6852039268779375
-0.8635312049289896
-1.0701587768025584
-1.3078752882151363
0.7342199778635561
0.8965545082229522
0.5923082408157828
0.4699844973806037
0.36572029463889705
0.2781317690367091
0.20576455931851992
0.1471684762100305
0.10088919854304922
0.06547441652466465
0.03947305543891714
0.021435281498643658
0.009912096898505791
0.0034550838928767928
0.0006162020056703433
-5.2345311788379255e-5
1.800601859592872e-6
-0.000668902628256578
-0.0035119329688757393
-0.009974724120185779
-0.021504675436156598
-0.03954915746561119
-0.06555550262120613
-0.10097101432985855
-0.1472428261025749
-0.20581809090138375
-0.27814233025992613
-0.3656630761564937
-0.46981053408292894
-0.5920584437903712
-0.7336867812219302
-0.8966793778149622
0.4765704352329732
0.581969799508509
0.3845027435313073
0.30511113468716966
0.237434506883514
0.18057390666878978
0.13359235499307343
0.09555032419836058
0.06550457230191943
0.04251225565095356
0.02563115146540669
0.01391982077548912
0.006437434275368356
0.002243615340341145
0.00039830074222818026
-3.8360400329232816e-5
-6.077534883266447e-6
-0.00044446560948698416
-0.0022930741995344918
-0.006491403107684029
-0.013978906060625539
-0.025694984343620296
-0.042578958308029144
-0.06557003446501997
-0.09560713250229316
-0.13362891749674008
-0.18057242127644157
-0.23737563470051004
-0.30496326676810087
-0.38429332013895007
-0.47618181523919284
-0.5819730753023631
0.28739331694524206
0.35095281003976964
0.2319126941211889
0.18404528436996945
0.14323432336327468
0.10893855389850265
0.08059864498305241
0.057649924145173344
0.039524456901930766
0.02565370090878352
0.015469236236343099
0.008403043121746884
0.0038874971376903077
0.0013552995766505285
0.00023939561601720553
-2.7094816873409303e-5
-1.0929571656471827e-5
-0.0002787809251829618
-0.0013972584183956202
-0.003932919282649514
-0.008452265634118855
-0.01552172673353977
-0.025707613119926403
-0.039576048208285274
-0.05769277340252823
-0.08062306504779375
-0.10893063592198858
-0.14317940301460194
-0.18392361209755123
-0.2317416264235106
-0.28711268205757917
-0.3508922206313172
0.15614942065975562
0.19065857929315602
0.12604457442194925
0.10004931459664287
0.07787801716228146
0.05923911342940097
0.04383376581196864
0.03135730615617372
0.02150221605655205
0.013959816824831455
0.008421173682856066
0.00457744601860138
0.002119997449736305
0.0007403983169907785
0.0001303930269087117
-1.8139571260761196e-5
-1.3221051812861221e-5
-0.00016279973447828094
-0.000774767079907721
-0.002156962975235187
-0.00461716689455194
-0.008463070208187493
-0.014002215675052672
-0.021541900463956255
-0.03138896731337385
-0.043849637794527156
-0.05922867074654153
-0.07783046603386676
-0.0999527521922851
-0.12590938121481215
-0.15594990446670015
-0.19057318487962582
0.07230268266927585
0.08823833425624174
0.05840489107501211
0.04638473797473112
0.03612292845776988
0.027488399951242627
0.020347723749438638
0.01456232487469337
0.009991119273468827
0.006491616130616274
0.003920798547585972
0.002135510544068706
0.0009926384907009906
0.0003491695071279642
6.21988166206927e-5
-1.1084139308823076e-5
-1.3414638021762632e-5
-8.74694141649172e-5
-0.0003758771016811756
-0.0010212190217383566
-0.0021660154411346105
-0.003952690090643995
-0.006523498343246291
-0.010020408381140735
-0.014584883103575506
-0.020357651687134746
-0.02747807534290422
-0.03608472026456685
-0.046311779194722714
-0.0583030080327743
-0.07216490331162316
-0.08815314025438604
0.02531946487518483
0.030839131462378426
0.020500107481830603
0.016312634075627552
0.012725731610905724
0.009698754245643686
0.0071902268235799404
0.005154664210112611
0.0035443396141426574
0.0023100574186898258
0.001401915074080867
0.0007697008219366149
0.0003631145859728526
0.00013186705085139672
2.5717906590032027e-5
-5.516858551845594e-6
-1.1970402314200934e-5
-4.373354557684795e-5
-0.00015086028257385773
-0.0003833652400058739
-0.0007912067380268486
-0.001424246287988555
-0.002332169225687168
-0.003564350364147178
-0.005169628437823586
-0.007196029853259297
-0.009690275033077976
-0.012697940737087438
-0.016261802104306503
-0.020429241941059943
-0.025229814216226724
-0.0307694611051349
0.004667801900095643
0.005604856463360965
0.0038367174966248527
0.003093893310592922
0.0024426683126895473
0.0018821652935146435
0.0014107391224425368
0.0010238582333815106
0.0007149613689852208
0.00047604789098273925
0.0002982980060109391
0.00017246431442074822
8.911103501399564e-5
3.8740513837831935e-5
1.1853884386963863e-5
-1.0253486563067225e-6
-9.346130636256991e-6
-2.253195867775185e-5
-4.998289728992305e-5
-0.00010107130765074624
-0.00018512390247928296
-0.0003113795315326201
-0.0004889064928183828
-0.000726458851653449
-0.0010322434142186793
-0.0014136038461533924
-0.0018765920655690364
-0.0024258305510396674
-0.003063997820832607
-0.0037950827379355343
-0.0046173386878581146
-0.00555950252411645
-0.0001829847938398285
-0.0003231651662473062
-7.874552213159538e-5
-1.0649503609720428e-5
2.9698040355638223e-5
5.035998929285788e-5
5.8523100257927755e-5
5.93075256677592e-5
5.598534237897581e-5
5.044460748440223e-5
4.3692611060844503e-5
3.6231532086746455e-5
2.830373132607361e-5
2.0034688790589467e-5
1.1508535569568954e-5
2.8030388808912863e-6
-5.9976687973172075e-6
-1.4800854623095371e-5
-2.3505429250880804e-5
-3.199786648674172e-5
-4.013584265664966e-5
-4.770811720202997e-5
-5.43533434035201e-5
-5.941357394796901e-5
-6.169369511719686e-5
-5.911080096711519e-5
-4.825436204865547e-5
-2.4041286319267292e-5
2.036893001225227e-5
9.226243974406533e-5
0.000199280535951204
0.0003397000472708923
0.00023742368341505163
0.0001944550149116117
0.00026031987527355596
0.0002598609104960187
0.0002426025278321599
0.000214871804611549
0.0001826759882834962
0.00015029499290437074
0.00012033483448787088
9.405634023287313e-5
7.181502545375262e-5
5.341586476720962e-5
3.8358810613672074e-5
2.5989158680144882e-5
1.5581366155957614e-5
6.380751477468318e-6
-2.379314701501715e-6
-1.147302737278665e-5
-2.1682491633288042e-5
-3.379595256288056e-5
-4.8595912291622486e-5
-6.682538163432746e-5
-8.911382597433602e-5
-0.0001158353755993399
-0.00014686273243387743
-0.00018118578852811208
-0.00021639197671343146
-0.00024817273822243843
-0.00027005694260467413
-0.0002745768897598371
-0.00025377168877413687
-0.00020826390306693182
-0.0045998490972952236
-0.00570432143127047
-0.0036393853123486823
-0.0028336558726016242
-0.0021629468524140987
-0.0016129117127932234
-0.0011678427096552663
-0.0008140010035749555
-0.0005391387567406071
-0.00033235433743004656
-0.00018364712649331764
-8.358639780462775e-5
-2.3067588861122673e-5
6.837922275710665e-6
1.4969153877139853e-5
1.0119564227015076e-5
1.0557487135863997e-6
-3.4781823828837423e-6
5.2370693283753e-6
3.589326660879307e-5
9.715896422592123e-5
0.00019770219846855681
0.00034625074502707984
0.0005517200101330195
0.000823458139150241
0.001171652653179172
0.0016079805271128342
0.002146247746856176
0.0028032886367490074
0.0035969022872156904
0.004549028939849605
0.005661183411118175
-0.02522300546893544
-0.03088252298040386
-0.020271020307293885
-0.016030190637357077
-0.012431348654112917
-0.00942171943626777
-0.006944192144857508
-0.0049444961949819686
-0.003369650579884182
-0.0021680684949161137
-0.0012890336063254909
-0.0006823956767645803
-0.0002983293354075714
-8.71908481459562e-5
5.655665415292408e-7
1.4430128055046687e-5
3.8549949113546936e-6
1.825666353591555e-5
0.00010700990988053255
0.00031943847586443094
0.000704808731893691
0.0013123363287929014
0.0021912248509612232
0.003390768398716529
0.004960582155124327
0.006951024704224149
0.00941399727717999
0.012403807745811622
0.015978911046900836
0.020199105644287008
0.025132403376087447
0.030814039414418456
-0.07215964735222102
-0.08820379712738967
-0.058127555343659466
-0.046068632291676875
-0.03580705384627378
-0.027200383617996263
-0.02009763922824874
-0.014352192672363442
-0.009818477223154341
-0.006352407754522246
-0.0038107098335584855
-0.0020506482566124977
-0.0009297900135829311
-0.0003058748702342749
-3.673912285514375e-5
1.972155772748915e-5
5.566089545671382e-6
6.28067295487676e-5
0.00033339780797722796
0.000959217983554447
0.002082050294930145
0.0038435677262159424
0.006385341356356405
0.009848903781984077
0.014375942113802631
0.020108719646266923
0.02719099209530869
0.03576927925571588
0.04599529805456016
0.0580243620408509
0.07202006440989756
0.08811822541845081
-0.15593678416670553
-0.19053209542258498
-0.1257017119617418
-0.09968776827173347
-0.0775345704026158
-0.058937841833498775
-0.04357955469700507
-0.03114817308280735
-0.021332951399684184
-0.013824730403334737
-0.00831506439929468
-0.004495994885532563
-0.0020598222796200526
-0.0006989976053656459
-0.0001060582061448953
2.6401074716500826e-5
5.736441289166368e-6
0.0001392490008944753
0.000734167226762165
0.0020976193746512052
0.0045365973855362885
0.0083579165943178
0.013868183704132883
0.021373805064168142
0.031181107657955613
0.043596734747068454
0.058928570543353195
0.07748772580415407
0.09959099358473233
0.12556493943828276
0.1557344100641123
0.1904442023765585
-0.287080779431236
-0.3507313506341625
-0.23148588752946903
-0.18362630817207917
-0.14285849397896444
-0.10862315427707886
-0.080341415246121
-0.057443596208604564
-0.039360456259291826
-0.025524426738502685
-0.015368505895427936
-0.008326098880697332
-0.0038308068921113054
-0.0013163479130012393
-0.0002165085955664769
3.487371068606775e-5
3.912784504298416e-6
0.0002566617820663841
0.0013590889022950814
0.003877039175824228
0.008376180377664529
0.0154219328729098
0.02557938762463246
0.03941324224302437
0.05748780330712904
0.08036732055860327
0.10861670444519506
0.14280465850065843
0.1835047326911509
0.2313130396847521
0.28679611549158224
0.3506655661937888
-0.4761171246584959
-0.5816652370754385
-0.3839720789999271
-0.3046229366333203
-0.23702356742377131
-0.18024553045007663
-0.13333480611581328
-0.0953496899487089
-0.06534841701123482
-0.04239091236379818
-0.0255374583989586
-0.013848633429922418
-0.006385131302965645
-0.0022077194841228953
-0.00037721077536077466
4.55420632140812e-5
-3.5919818296441e-7
0.0004241243034687976
0.0022579375210037434
0.006439882670862034
0.01390854633133532
0.025602196803082945
0.04245864323636893
0.06541508327288006
0.09540792861793612
0.13337303521417254
0.18024585585172798
0.23696627332709463
0.3044756850997203
0.38376084936735533
0.4757233240630659
0.5816600315274466
-0.7335702295113666
-0.8961964621082705
-0.5916517840851653
-0.46941647147549315
-0.3652747885183914
-0.2777943771212091
-0.205511430342119
-0.1469777476594635
-0.10074429459826141
-0.06536362294392453
-0.039388357862252116
-0.021371279361321015
-0.00986518841286561
-0.003422910282009713
-0.0005972887144737076
5.880608316832668e-5
-7.535217615620704e-6
0.0006507164287436842
0.0034804916331750255
0.009928564092958364
0.021441459387536548
0.03946531930439617
0.06544569544593301
0.10082729603386724
0.14705356928298205
0.20556678624951136
0.27780710729871394
0.36521974326056544
0.469243909906073
0.5914004650334366
0.7330309017371999
0.8963089926522837
-1.0699621647220408
-1.3071870672743113
-0.8630160885559963
-0.6847460337328563
-0.5328575203965127
-0.40525929928671717
-0.2998230793728434
-0.21443909467099342
-0.14699555969550365
-0.0953819964427737
-0.057487641196549776
-0.03120171905924806
-0.01441337361854498
-0.005011721425206379
-0.000885869699351479
7.506284186657178e-5
-1.8072708224881124e-5
0.0009455183957065298
0.0050765336333652485
0.014485507174103133
0.03128270254892305
0.057577946249334204
0.09548035291350948
0.14709796683772183
0.21453703522079576
0.2999019213514509
0.4052923699733099
0.5328137575388294
0.6845511426570676
0.8627247448192881
1.069226782670192
1.3075013975997216
-1.4958133087418652
-1.8274935451751102
-1.2065556892415523
-0.9573518503394977
-0.7450177680630682
-0.5666302544107799
-0.41922170230751316
-0.29984513560953746
-0.20554972413143766
-0.13338549447524034
-0.08040175922858336
-0.04364764333469346
-0.020172087710144844
-0.0070239580439816
-0.0012520845433023977
9.470625773062863e-5
-3.243117954307434e-5
0.0013176108671579484
0.007095850754291674
0.020253146970894635
0.04374007867721866
0.0805067541640959
0.13350247076756908
0.20567525731319386
0.299970784148562
0.4193321077018388
0.5666943413069305
0.7449986217834778
0.9571422019682251
1.2062265260047111
1.4948133871376066
1.828118079159386
-2.021632957904876
-2.4699761999660033
-1.6307630288999324
-1.293974739677096
-1.007001903131207
-0.765897030124963
-0.5666590281492644
-0.4053070617377833
-0.27785414236330075
-0.18031347224815233
-0.10869709911676917
-0.0590167098741215
-0.02728371826809883
-0.009509423207636784
-0.0017050668475154097
0.00011812656461119414
-5.1072688259447564e-5
0.001776074166743188
0.009588233730101094
0.02737393032817128
0.05912142077228212
0.1088184880036714
0.18045204419582248
0.2780076018581293
0.4054677661435312
0.5668119576868642
0.7660073570588595
1.007028415959307
1.2937669160023033
1.630409652304623
2.0202591642767276
2.4710773785998317
-2.6579389281854446
-3.247448274142202
-2.1441330304970823
-1.7013610940616226
-1.3240583450539123
-1.007050952196783
-0.7450877417915119
-0.5329367696491415
-0.3653566525696083
-0.23710560685617077
-0.14294024360178903
-0.07761668294042177
-0.03589070236663202
-0.012517938774665036
-0.002253956753650353
0.00014570994783438416
-7.446238367775746e-5
0.0023299906719880053
0.012603485632792288
0.03599032545409527
0.077734575360811
0.14307985455607203
0.23726890183284813
0.3655430169448683
0.5331401548037273
0.7452947696652684
1.0072244857572892
1.324155675160188
1.7011819878681451
2.1437742464488463
2.6560540986754995
3.2491196390673807
-3.415164811693004
-4.1728062583148535
-2.755183153121226
-2.186246052115946
-1.7014317626411384
-1.2940777843768643
-0.957456817346832
-0.6848432288145082
-0.4695030994560558
-0.3047002520553639
-0.1836969825508197
-0.09975490180870211
-0.046135288854457064
-0.016099267488444945
-0.002907889239887642
0.00017783637491877133
-0.00010306975905702646
0.0029884351086350166
0.016191393890077482
0.046244802036914515
0.09988749678566117
0.18385798000861814
0.30489393474318094
0.4697318223724039
0.6851041658645048
0.9577413060140602
1.2943480495646236
1.7016554130664603
2.1861501430033323
2.754946098871433
3.412414534187221
4.1754477279897655
-4.303970881305299
-5.25838344574774
-3.4724373657856096
-2.7554069301170645
-2.144386158044368
-1.6309820720806518
-1.20672865462228
-0.8631456468766352
-0.5917464611741782
-0.38404049588252387
-0.23153597062142195
-0.12574025033875255
-0.058160423055035534
-0.020303405996928484
-0.003676042424048949
0.00021488239083571926
-0.00013736862098301156
0.0037605093691677168
0.0204018406897196
0.058279925899671445
0.12588793313028257
0.2317187665203583
0.384264549060017
0.5920165437715145
0.8634616508343854
1.2070870162201133
1.6313463309434555
2.1447413957854073
2.7554225155463805
3.4723731515413965
4.300257548466498
5.260622183618845