# vtk DataFile Version 3.0

ASCII

DATASET UNSTRUCTURED_GRID
FIELD FieldData 1
TIME 1 1 double
0.0
POINTS 1024 float
-2.0 -1.0 0.0
-1.8709677419354838 -1.0 0.0
-1.8709677419354838 -0.9354838709677419 0.0
-2.0 -0.9354838709677419 0.0
-1.7419354838709677 -1.0 0.0
-1.7419354838709677 -0.9354838709677419 0.0
-1.6129032258064515 -1.0 0.0
-1.6129032258064515 -0.9354838709677419 0.0
-1.4838709677419355 -1.0 0.0
-1.4838709677419355 -0.9354838709677419 0.0
-1.3548387096774193 -1.0 0.0
-1.3548387096774193 -0.9354838709677419 0.0
-1.2258064516129032 -1.0 0.0
-1.2258064516129032 -0.9354838709677419 0.0
-1.096774193548387 -1.0 0.0
-1.096774193548387 -0.9354838709677419 0.0
-0.967741935483871 -1.0 0.0
-0.967741935483871 -0.9354838709677419 0.0
-0.8387096774193549 -1.0 0.0
-0.8387096774193549 -0.9354838709677419 0.0
-0.7096774193548387 -1.0 0.0
-0.7096774193548387 -0.9354838709677419 0.0
-0.5806451612903226 -1.0 0.0
-0.5806451612903226 -0.9354838709677419 0.0
-0.45161290322580644 -1.0 0.0
-0.45161290322580644 -0.9354838709677419 0.0
-0.3225806451612903 -1.0 0.0
-0.3225806451612903 -0.9354838709677419 0.0
-0.1935483870967742 -1.0 0.0
-0.1935483870967742 -0.9354838709677419 0.0
-0.06451612903225806 -1.0 0.0
-0.06451612903225806 -0.9354838709677419 0.0
0.06451612903225806 -1.0 0.0
0.06451612903225806 -0.9354838709677419 0.0
0.1935483870967742 -1.0 0.0
0.1935483870967742 -0.9354838709677419 0.0
0.3225806451612903 -1.0 0.0
0.3225806451612903 -0.9354838709677419 0.0
0.45161290322580644 -1.0 0.0
0.45161290322580644 -0.9354838709677419 0.0
0.5806451612903226 -1.0 0.0
0.5806451612903226 -0.9354838709677419 0.0
0.7096774193548387 -1.0 0.0
0.7096774193548387 -0.9354838709677419 0.0
0.8387096774193549 -1.0 0.0
0.8387096774193549 -0.9354838709677419 0.0
0.967741935483871 -1.0 0.0
0.967741935483871 -0.9354838709677419 0.0
1.096774193548387 -1.0 0.0
1.096774193548387 -0.9354838709677419 0.0
1.2258064516129032 -1.0 0.0
1.2258064516129032 -0.9354838709677419 0.0
1.3548387096774193 -1.0 0.0
1.3548387096774193 -0.9354838709677419 0.0
1.4838709677419355 -1.0 0.0
1.4838709677419355 -0.9354838709677419 0.0
1.6129032258064515 -1.0 0.0
1.6129032258064515 -0.9354838709677419 0.0
1.7419354838709677 -1.0 0.0
1.7419354838709677 -0.9354838709677419 0.0
1.8709677419354838 -1.0 0.0
1.8709677419354838 -0.9354838709677419 0.0
2.0 -1.0 0.0
2.0 -0.9354838709677419 0.0
-1.8709677419354838 -0.8709677419354839 0.0
-2.0 -0.8709677419354839 0.0
-1.7419354838709677 -0.8709677419354839 0.0
-1.6129032258064515 -0.8709677419354839 0.0
-1.4838709677419355 -0.8709677419354839 0.0
-1.3548387096774193 -0.8709677419354839 0.0
-1.2258064516129032 -0.8709677419354839 0.0
-1.096774193548387 -0.8709677419354839 0.0
-0.967741935483871 -0.8709677419354839 0.0
-0.8387096774193549 -0.8709677419354839 0.0
-0.7096774193548387 -0.8709677419354839 0.0
-0.5806451612903226 -0.8709677419354839 0.0
-0.45161290322580644 -0.8709677419354839 0.0
-0.3225806451612903 -0.8709677419354839 0.0
-0.1935483870967742 -0.8709677419354839 0.0
-0.06451612903225806 -0.8709677419354839 0.0
0.06451612903225806 -0.8709677419354839 0.0
0.1935483870967742 -0.8709677419354839 0.0
0.3225806451612903 -0.8709677419354839 0.0
0.45161290322580644 -0.8709677419354839 0.0
0.5806451612903226 -0.8709677419354839 0.0
0.7096774193548387 -0.8709677419354839 0.0
0.8387096774193549 -0.8709677419354839 0.0
0.967741935483871 -0.8709677419354839 0.0
1.096774193548387 -0.8709677419354839 0.0
1.2258064516129032 -0.8709677419354839 0.0
1.3548387096774193 -0.8709677419354839 0.0
1.4838709677419355 -0.8709677419354839 0.0
1.6129032258064515 -0.8709677419354839 0.0
1.7419354838709677 -0.8709677419354839 0.0
1.8709677419354838 -0.8709677419354839 0.0
2.0 -0.8709677419354839 0.0
-1.8709677419354838 -0.8064516129032258 0.0
-2.0 -0.8064516129032258 0.0
-1.7419354838709677 -0.8064516129032258 0.0
-1.6129032258064515 -0.8064516129032258 0.0
-1.4838709677419355 -0.8064516129032258 0.0
-1.3548387096774193 -0.8064516129032258 0.0
-1.2258064516129032 -0.8064516129032258 0.0
-1.096774193548387 -0.8064516129032258 0.0
-0.967741935483871 -0.8064516129032258 0.0
-0.8387096774193549 -0.8064516129032258 0.0
-0.7096774193548387 -0.8064516129032258 0.0
-0.5806451612903226 -0.8064516129032258 0.0
-0.45161290322580644 -0.8064516129032258 0.0
-0.3225806451612903 -0.8064516129032258 0.0
-0.1935483870967742 -0.8064516129032258 0.0
-0.06451612903225806 -0.8064516129032258 0.0
0.06451612903225806 -0.8064516129032258 0.0
0.1935483870967742 -0.8064516129032258 0.0
0.3225806451612903 -0.8064516129032258 0.0
0.45161290322580644 -0.8064516129032258 0.0
0.5806451612903226 -0.8064516129032258 0.0
0.7096774193548387 -0.8064516129032258 0.0
0.8387096774193549 -0.8064516129032258 0.0
0.967741935483871 -0.8064516129032258 0.0
1.096774193548387 -0.8064516129032258 0.0
1.2258064516129032 -0.8064516129032258 0.0
1.3548387096774193 -0.8064516129032258 0.0
1.4838709677419355 -0.8064516129032258 0.0
1.6129032258064515 -0.8064516129032258 0.0
1.7419354838709677 -0.8064516129032258 0.0
1.8709677419354838 -0.8064516129032258 0.0
2.0 -0.8064516129032258 0.0
-1.8709677419354838 -0.7419354838709677 0.0
-2.0 -0.7419354838709677 0.0
-1.7419354838709677 -0.7419354838709677 0.0
-1.6129032258064515 -0.7419354838709677 0.0
-1.4838709677419355 -0.7419354838709677 0.0
-1.3548387096774193 -0.7419354838709677 0.0
-1.2258064516129032 -0.7419354838709677 0.0
-1.096774193548387 -0.7419354838709677 0.0
-0.967741935483871 -0.7419354838709677 0.0
-0.8387096774193549 -0.7419354838709677 0.0
-0.7096774193548387 -0.7419354838709677 0.0
-0.5806451612903226 -0.7419354838709677 0.0
-0.45161290322580644 -0.7419354838709677 0.0
-0.3225806451612903 -0.7419354838709677 0.0
-0.1935483870967742 -0.7419354838709677 0.0
-0.06451612903225806 -0.7419354838709677 0.0
0.06451612903225806 -0.7419354838709677 0.0
0.1935483870967742 -0.7419354838709677 0.0
0.3225806451612903 -0.7419354838709677 0.0
0.45161290322580644 -0.7419354838709677 0.0
0.5806451612903226 -0.7419354838709677 0.0
0.7096774193548387 -0.7419354838709677 0.0
0.8387096774193549 -0.7419354838709677 0.0
0.967741935483871 -0.7419354838709677 0.0
1.096774193548387 -0.7419354838709677 0.0
1.2258064516129032 -0.7419354838709677 0.0
1.3548387096774193 -0.7419354838709677 0.0
1.4838709677419355 -0.7419354838709677 0.0
1.6129032258064515 -0.7419354838709677 0.0
1.7419354838709677 -0.7419354838709677 0.0
1.8709677419354838 -0.7419354838709677 0.0
2.0 -0.7419354838709677 0.0
-1.8709677419354838 -0.6774193548387096 0.0
-2.0 -0.6774193548387096 0.0
-1.7419354838709677 -0.6774193548387096 0.0
-1.6129032258064515 -0.6774193548387096 0.0
-1.4838709677419355 -0.6774193548387096 0.0
-1.3548387096774193 -0.6774193548387096 0.0
-1.2258064516129032 -0.6774193548387096 0.0
-1.096774193548387 -0.6774193548387096 0.0
-0.967741935483871 -0.6774193548387096 0.0
-0.8387096774193549 -0.6774193548387096 0.0
-0.7096774193548387 -0.6774193548387096 0.0
-0.5806451612903226 -0.6774193548387096 0.0
-0.45161290322580644 -0.6774193548387096 0.0
-0.3225806451612903 -0.6774193548387096 0.0
-0.1935483870967742 -0.6774193548387096 0.0
-0.06451612903225806 -0.6774193548387096 0.0
0.06451612903225806 -0.6774193548387096 0.0
0.1935483870967742 -0.6774193548387096 0.0
0.3225806451612903 -0.6774193548387096 0.0
0.45161290322580644 -0.6774193548387096 0.0
0.5806451612903226 -0.6774193548387096 0.0
0.7096774193548387 -0.6774193548387096 0.0
0.8387096774193549 -0.6774193548387096 0.0
0.967741935483871 -0.6774193548387096 0.0
1.096774193548387 -0.6774193548387096 0.0
1.2258064516129032 -0.6774193548387096 0.0
1.3548387096774193 -0.6774193548387096 0.0
1.4838709677419355 -0.6774193548387096 0.0
1.6129032258064515 -0.6774193548387096 0.0
1.7419354838709677 -0.6774193548387096 0.0
1.8709677419354838 -0.6774193548387096 0.0
2.0 -0.6774193548387096 0.0
-1.8709677419354838 -0.6129032258064516 0.0
-2.0 -0.6129032258064516 0.0
-1.7419354838709677 -0.6129032258064516 0.0
-1.6129032258064515 -0.6129032258064516 0.0
-1.4838709677419355 -0.6129032258064516 0.0
-1.3548387096774193 -0.6129032258064516 0.0
-1.2258064516129032 -0.6129032258064516 0.0
-1.096774193548387 -0.6129032258064516 0.0
-0.967741935483871 -0.6129032258064516 0.0
-0.8387096774193549 -0.6129032258064516 0.0
-0.7096774193548387 -0.6129032258064516 0.0
-0.5806451612903226 -0.6129032258064516 0.0
-0.45161290322580644 -0.6129032258064516 0.0
-0.3225806451612903 -0.6129032258064516 0.0
-0.1935483870967742 -0.6129032258064516 0.0
-0.06451612903225806 -0.6129032258064516 0.0
0.06451612903225806 -0.6129032258064516 0.0
0.1935483870967742 -0.6129032258064516 0.0
0.3225806451612903 -0.6129032258064516 0.0
0.45161290322580644 -0.6129032258064516 0.0
0.5806451612903226 -0.6129032258064516 0.0
0.7096774193548387 -0.6129032258064516 0.0
0.8387096774193549 -0.6129032258064516 0.0
0.967741935483871 -0.6129032258064516 0.0
1.096774193548387 -0.6129032258064516 0.0
1.2258064516129032 -0.6129032258064516 0.0
1.3548387096774193 -0.6129032258064516 0.0
1.4838709677419355 -0.6129032258064516 0.0
1.6129032258064515 -0.6129032258064516 0.0
1.7419354838709677 -0.6129032258064516 0.0
1.8709677419354838 -0.6129032258064516 0.0
2.0 -0.6129032258064516 0.0
-1.8709677419354838 -0.5483870967741935 0.0
-2.0 -0.5483870967741935 0.0
-1.7419354838709677 -0.5483870967741935 0.0
-1.6129032258064515 -0.5483870967741935 0.0
-1.4838709677419355 -0.5483870967741935 0.0
-1.3548387096774193 -0.5483870967741935 0.0
-1.2258064516129032 -0.5483870967741935 0.0
-1.096774193548387 -0.5483870967741935 0.0
-0.967741935483871 -0.5483870967741935 0.0
-0.8387096774193549 -0.5483870967741935 0.0
-0.7096774193548387 -0.5483870967741935 0.0
-0.5806451612903226 -0.5483870967741935 0.0
-0.45161290322580644 -0.5483870967741935 0.0
-0.3225806451612903 -0.5483870967741935 0.0
-0.1935483870967742 -0.5483870967741935 0.0
-0.06451612903225806 -0.5483870967741935 0.0
0.06451612903225806 -0.5483870967741935 0.0
0.1935483870967742 -0.5483870967741935 0.0
0.3225806451612903 -0.5483870967741935 0.0
[...]
POINT_DATA 1024
SCALARS pressure double
LOOKUP_TABLE default
7.969587156752425
6.519917578628762
5.336236406017622
6.521634415849645
5.260547509800213
4.305133398694354
4.173897452643158
3.4159421528467675
3.248321613026343
2.658406143708563
2.4706010894091626
2.0219356056879834
1.8279705357020057
1.496004424955595
1.3075356792141393
1.070084323591467
0.896441620215431
0.7336463717635187
0.5818220168614026
0.4761632882091851
0.35081430532410735
0.2871074740639269
0.19055485784361714
0.15595164637705233
0.08818043122706178
0.07216849879124122
0.030827673079410565
0.02523077074597787
0.00563326339446335
0.00461119886478905
-0.00026613595204149455
-0.0002174776792868035
0.00026613595203560007
0.0002174776792794291
-0.005633263394466528
-0.004611198864796832
-0.030827673079423364
-0.025230770745987587
-0.08818043122704836
-0.07216849879125829
-0.19055485784368797
-0.1559516463770851
-0.35081430532402386
-0.2871074740639647
-0.5818220168614497
-0.47616328820921067
-0.8964416202155532
-0.7336463717637055
-1.307535679214107
-1.0700843235915534
-1.827970535701739
-1.4960044249555813
-2.4706010894091652
-2.0219356056879434
-3.2483216130262886
-2.658406143708617
-4.173897452643231
-3.4159421528468137
-5.260547509799694
-4.3051333986939735
-6.519917578628218
-5.336236406018359
-7.969587156753658
-6.521634415849706
4.305124118105387
5.261165220757123
3.4732460284678357
2.755860919675003
2.144710658720825
1.631225829615963
1.2069243488369419
0.8633073950789459
0.5918818208807368
0.38415394227738675
0.23163057477291213
0.125818620827836
0.0582250596456423
0.020356901648209285
0.003721170613952607
-0.00017510484329302155
0.00017510484328481685
-0.003721170613961133
-0.020356901648222684
-0.058225059645656524
-0.125818620827865
-0.2316305747729341
-0.38415394227745525
-0.5918818208808273
-0.8633073950789977
-1.2069243488369734
-1.6312258296157414
-2.1447106587210696
-2.7558609196749986
-3.4732460284678375
-4.305124118105934
-5.261165220757804
3.4159727651691902
4.174525875265076
2.7559320977886768
2.1866968174550756
1.7017683681566964
1.2943317295314631
0.9576613588248798
0.6850115949963597
0.4696436815687909
0.30481784678829627
0.18379500037193952
0.09983609402750286
0.046202185118851886
0.016154363615498067
0.002953740324838667
-0.00013856612664589
0.00013856612663689323
-0.002953740324848269
-0.016154363615510845
-0.046202185118864966
-0.09983609402753454
-0.18379500037197885
-0.30481784678836304
-0.4696436815688747
-0.6850115949963619
-0.9576613588248813
-1.2943317295313082
-1.701768368156671
-2.1866968174549783
-2.7559320977886084
-3.4159727651700256
-4.174525875263709
2.6584299958953497
3.248771788230184
2.1447879882189094
1.701781026419502
1.3243908179527095
1.007305940474782
0.7452952626694929
0.5331079813918861
0.36549983725819407
0.23722549749225083
0.143040308182127
0.07769964842404072
0.03595900849055997
0.012573913395267615
0.0022999124748566235
-0.00010743498573520042
0.00010743498572561263
-0.0022999124748666585
-0.012573913395282072
-0.035959008490572555
-0.07769964842406901
-0.14304030818215901
-0.23722549749228
-0.3654998372582393
-0.5331079813919178
-0.745295262669469
-1.0073059404746751
-1.3243908179527513
-1.7017810264194473
-2.14478798821911
-2.658429995895608
-3.2487717882312586
2.0219502759881753
2.4709744028419958
1.6313015097519583
1.2943562611633006
1.0073192191575258
0.7661483923975368
0.5668664928577106
0.4054795677098834
0.27799890246028136
0.18043490000869714
0.10879852422505719
0.05910078084726532
0.027352776001209566
0.009565651731890022
0.0017505746119517928
-8.127772342791852e-5
8.127772341802117e-5
-0.0017505746119622267
-0.009565651731903109
-0.027352776001226056
-0.05910078084728211
-0.10879852422508275
-0.18043490000872886
-0.2779989024603122
-0.405479567709891
-0.5668664928576942
-0.7661483923973598
-1.007319219157621
-1.294356261163134
-1.6313015097518624
-2.021950275988579
-2.470974402842051
1.4960135301723594
1.8282608667167486
1.2069910648523903
0.9576889617359694
0.745313780172925
0.566873297438387
0.41942607598032794
0.3000169216265245
0.20569467005144051
0.1335074164798447
0.08050369672731929
0.04373208482936825
0.02024124011126536
0.007079855196350368
0.0012966455032552208
-5.966261655663357e-5
5.966261654662514e-5
-0.0012966455032658146
-0.007079855196363361
-0.020241240111278917
-0.04373208482938879
-0.08050369672734155
-0.13350741647986694
-0.20569467005145184
-0.3000169216265068
-0.41942607598029974
-0.5668732974382553
-0.7453137801729868
-0.9576889617358468
-1.206991064852462
-1.4960135301725512
-1.8282608667162037
1.070088906541586
1.3077616739975049
0.8633639508152892
0.6850397325104087
0.5331294396398056
0.4054912051849768
0.30002221879974905
0.21460862683407392
0.14713956005492793
0.0955035212932993
0.057589337855234526
0.0312858636210772
0.014482019512667022
0.005066754256447065
0.0009290360166376148
-4.215727514094005e-5
4.2157275130962294e-5
-0.0009290360166480951
-0.005066754256458864
-0.014482019512679745
-0.031285863621094645
-0.057589337855253095
-0.09550352129331324
-0.1471395600549391
-0.21460862683405577
-0.3000222187997055
-0.40549120518489074
-0.5331294396397593
-0.6850397325103447
-0.863363950815249
-1.0700889065416588
-1.3077616739975222
0.7336485805012275
0.8966110427706763
0.5919285295224733
0.46967071444205
0.3655224383272381
0.27801370527965397
0.20570390542829026
0.1471438231661422
0.10088637347804544
0.06548393551992504
0.03948910835356225
0.021454501123695405
0.009932770270916652
0.0034765925191801495
0.0006386594917238641
-2.832938668897404e-5
2.8329386679165883e-5
-0.0006386594917338812
-0.003476592519191387
-0.00993277027092796
-0.021454501123708267
-0.039489108353576274
-0.0654839355199328
-0.10088637347805088
-0.14714382316612662
-0.20570390542826034
-0.2780137052795702
-0.36552243832721976
-0.46967071444194186
-0.5919285295224014
-0.733648580501252
-0.8966110427704849
0.47616433820310494
0.5819441597516077
0.38419200159315725
0.30484339826090734
0.23724858160915777
0.18045211139738904
0.13351992521252812
0.09551151568878036
0.06548781945413004
0.04250932092976383
0.025636633380330596
0.013930362149185397
0.006451139875808969
0.0022596108471238806
0.00041642897916155993
-1.7746508094485118e-5
1.7746508084967375e-5
-0.00041642897917119925
-0.002259610847134367
-0.006451139875819388
-0.013930362149197302
-0.02563663338034001
-0.04250932092977258
-0.0654878194541361
-0.09551151568875367
-0.13351992521249575
-0.18045211139731424
-0.23724858160915432
-0.30484339826080303
-0.38419200159310773
-0.4761643382032164
-0.581944159751492
0.2871084153377592
0.35089681621538593
0.23166150647434944
0.1838192239600205
0.1430637052840966
0.10881778991025601
0.08051912143374791
0.057600752064037204
0.03949663797152023
0.025640359745833792
0.015465550680294812
0.00840581852496338
0.0038947792426085397
0.0013660514660646691
0.00025325791719177577
-9.976138585387846e-6
9.976138576234257e-6
-0.00025325791720101854
-0.001366051466073999
-0.0038947792426174467
-0.008405818524972535
-0.015465550680299322
-0.025640359745835957
-0.039496637971518755
-0.0576007520640053
-0.0805191214337113
-0.10881778991019746
-0.14306370528407203
-0.18381922395991437
-0.23166150647429348
-0.28710841533781045
-0.3508968162152066
0.15595316055883962
0.19060511828478416
0.12584405471811666
0.0998594860542342
0.07772355788120015
0.059122062602270924
0.043750315566440094
0.03130056892062834
0.02146556320030079
0.01393773108522389
0.008409496434744913
0.004573241425637346
0.002121339144535831
0.0007461566921665731
0.00014005987471892722
-4.5857210759539195e-6
4.585721067162818e-6
-0.00014005987472765692
-0.0007461566921751979
-0.0021213391445438017
-0.004573241425643817
-0.008409496434749393
-0.013937731085222874
-0.021465563200294215
-0.03130056892059961
-0.043750315566405504
-0.05912206260221794
-0.07772355788117372
-0.09985948605415365
-0.12584405471806243
-0.15595316055884442
-0.19060511828481785
0.07217105431145251
0.08820535854867985
0.05824664376061807
0.04622541903759708
0.035983846248350035
0.027376230878438126
0.020262321868355644
0.01450000146178632
0.009947329975508722
0.006462115172392353
0.003902107793396584
0.002125002708914427
0.000988470775561829
0.0003501690704376283
6.774852664207953e-5
-1.1426685880988672e-6
1.142668579664239e-6
-6.774852665035999e-5
-0.0003501690704454786
-0.0009884707755686527
-0.0021250027089193863
-0.0039021077933981997
-0.006462115172389818
-0.009947329975497632
-0.014500001461759062
-0.020262321868327018
-0.027376230878385328
-0.03598384624831769
-0.046225419037523044
-0.05824664376057339
-0.07217105431144058
-0.0882053585486917
0.025234656920256737
0.030833949379142692
0.020376270245685633
0.016178216974153076
0.012600239133366262
0.009591571151102431
0.007103940410859626
0.005088077355872459
0.003494669265336844
0.0022741903171373196
0.0013770210109104763
0.000753473858920239
0.00035382520835768944
0.00012833113157838675
2.7237563657241175e-5
7.856147736494468e-7
-7.856147817719138e-7
-2.7237563665095553e-5
-0.0001283311315857056
-0.0003538252083636232
-0.0007534738589243412
-0.0013770210109108093
-0.0022741903171330674
-0.003494669265324391
-0.005088077355847372
-0.00710394041082979
-0.009591571151055878
-0.012600239133324089
-0.016178216974090994
-0.020376270245630785
-0.025234656920237384
-0.03083394937914823
0.0046165943463798926
0.005627384770122042
0.0037399466103709535
0.0029790560534017465
0.002328380141502973
0.0017793393701740605
0.0013239574940973897
0.0009538158039507468
0.0006603071104271566
0.00043463208820767235
0.0002678708882928868
0.00015102563222321993
7.505317773013804e-5
3.0885264444892037e-5
9.440625106410751e-6
1.6317128366871057e-6
-1.6317128445482952e-6
-9.440625113965309e-6
-3.088526445173137e-5
-7.505317773555772e-5
-0.00015102563222644375
-0.000267870888292427
-0.0004346320882017508
-0.0006603071104133285
-0.0009538158039271275
-0.0013239574940678964
-0.0017793393701294271
-0.002328380141459943
-0.0029790560533448055
-0.003739946610317217
-0.004616594346351132
-0.005627384770099049
-0.00021045390536734868
-0.00027777965747114586
-0.00015529296465676277
-0.00011089368905297426
-7.610507884646328e-5
-4.922701209829637e-5
-2.8855201659776626e-5
-1.3774128675434256e-5
-3.036917361765365e-6
4.112179884552602e-6
8.290034283152565e-6
1.0027615061383346e-5
9.80483339588313e-6
8.073588121474071e-6
5.271240440750071e-6
1.8281807471543009e-6
-1.8281807548306678e-6
-5.271240448089904e-6
-8.073588128033859e-6
-9.804833400987325e-6
-1.002761506410004e-5
-8.290034282045503e-6
-4.112179877893672e-6
3.0369173759950262e-6
1.3774128698313768e-5
2.8855201690453358e-5
4.922701213895565e-5
7.610507889158702e-5
0.00011089368910722519
0.0001552929647116266
0.00021045390540615867
0.0002777796575225875
0.00022624170839176372
0.0002550631502704924
0.00019761297929409648
0.00016953985562731782
0.00014239636720489188
0.00011709251407818945
9.425889743572966e-5
7.430537002635484e-5
5.7349240523501326e-5
4.329764977264481e-5
3.190837581770151e-5
2.284793391214687e-5
1.5729579643640965e-5
1.0137868795030861e-5
5.6427907676257385e-6
1.8075339341670695e-6
-1.8075339417400968e-6
-5.642790774858436e-6
-1.013786880148247e-5
-1.5729579648654394e-5
-2.2847933914691e-5
-3.190837581648403e-5
-4.3297649765895124e-5
-5.7349240509267256e-5
-7.430537000355521e-5
-9.425889740499284e-5
-0.00011709251404142467
-0.00014239636715612412
-0.00016953985557722803
-0.0001976129792384032
-0.00022624170833721797
-0.0002550631502216869
-0.004600537389934579
-0.005637431021994302
-0.0036942413452548833
-0.0029184641462635936
-0.002260513161043228
-0.001710498562303478
-0.001257959800070477
-0.0008929602815459256
-0.0006058307425331503
-0.00038714964617022875
-0.0002276471711015551
-0.00011814692074051899
-4.952401165391172e-5
-1.2680519363398875e-5
1.4684934588028206e-6
2.0022442134685454e-6
-2.0022442210185016e-6
-1.468493466044532e-6
1.2680519356911116e-5
4.95240116487026e-5
0.00011814692073780396
0.00022764717110253826
0.0003871496461765152
0.0006058307425474408
0.0008929602815676975
0.0012579598001028042
0.0017104985623352103
0.002260513161096967
0.0029184641463104364
0.003694241345316346
0.004600537389998751
0.0056374310220424695
-0.02521794958901176
-0.030818554013495054
-0.020323721925216934
-0.01611371677554351
-0.012529242503023275
-0.009520815625405413
-0.007036788742798185
-0.005026599185396112
-0.0034398822020796846
-0.00222657334980919
-0.0013367528178561251
-0.0007205921249097318
-0.0003283081969507878
-0.00011014058091446314
-1.633858686267968e-5
2.8447438512740935e-6
-2.8447438588806704e-6
1.6338586855342674e-5
0.00011014058090777957
0.00032830819694519916
0.0007205921249064177
0.0013367528178562169
0.002226573349814534
0.0034398822020917782
0.005026599185420209
0.007036788742828653
0.009520815625435154
0.01252924250307709
0.016113716775591074
0.02032372192527511
0.02521794958910934
0.030818554013455055
-0.07215307717781859
-0.08815153403900354
-0.0581836456925316
-0.046155019518726075
-0.03590821597214659
-0.027302697004589923
-0.02019352572800493
-0.014437654110881772
-0.009892119850994441
-0.006414322616649572
-0.003861787799383952
-0.0020921244018049737
-0.0009629759635869946
-0.000332001632014354
-5.686550005624738e-5
4.767437903812974e-6
-4.7674379115290876e-6
5.686550004867354e-5
0.00033200163200742226
0.0009629759635805734
0.0020921244018010546
0.0038617877993819966
0.006414322616654999
0.009892119851005576
0.014437654110904478
0.020193525728037724
0.02730269700461293
0.03590821597220521
0.04615501951876779
0.058183645692624054
0.07215307717790802
0.08815153403903093
-0.15593289777357217
-0.19049951493294592
-0.12576676847428211
-0.09978116838064441
-0.07764188209816708
-0.0590450103258661
-0.04367949194108447
-0.03123718339264832
-0.021409867706801845
-0.013889751743506326
-0.008369133994850479
-0.004540381727708757
-0.0020958808298034816
-0.0007280231774756848
-0.00012919934537840503
8.202724427038683e-6
-8.202724434926327e-6
0.00012919934537059362
0.0007280231774682599
0.0020958808297964616
0.004540381727703433
0.008369133994846718
0.013889751743509407
0.02140986770681158
0.031237183392671435
0.04367949194111494
0.05904501032589202
0.07764188209821447
0.0997811683807084
0.12576676847432966
0.1559328977737048
0.1904995149328588
-0.2870842415588253
-0.3507255158369268
-0.23156577124284602
-0.18373096704935274
-0.1429747294177381
-0.10873666206658247
-0.08044603575611725
-0.05753626169140942
-0.03944045869248588
-0.025592219520655848
-0.015425175360772314
-0.008373002920454063
-0.003869376573474446
-0.0013479647458076497
-0.00024242718410850627
1.3583021694609934e-5
-1.3583021702682173e-5
0.00024242718410036012
0.0013479647457997788
0.003869376573466504
0.008373002920447188
0.01542517536076798
0.02559221952065368
0.039440458692494317
0.05753626169144538
0.08044603575614556
0.10873666206660194
0.14297472941779382
0.18373096704943168
0.23156577124294078
0.28708424155893153
0.35072551583698264
-0.4761337034433129
-0.581692370684841
-0.3840732454106847
-0.30474324964459265
-0.2371513079310191
-0.18036660696860957
-0.13344453448606333
-0.09544597862337816
-0.06543123266428573
-0.042461087562727776
-0.025596296760316332
-0.01389762689915515
-0.006425816800152351
-0.00224158565668085
-0.00040563592954131756
2.1340800074588858e-5
-2.1340800082848476e-5
0.000405635929532849
0.002241585656672554
0.006425816800143463
0.013897626899146625
0.025596296760305823
0.04246108756272699
0.06543123266428513
0.0954459786234051
0.1334445344860963
0.18036660696860135
0.237151307931091
0.30474324964464394
0.3840732454107892
0.47613370344343275
0.5816923706847652
-0.7336075554902101
-0.8962625765733401
-0.591781697097722
-0.46955694691355715
-0.36541627042509844
-0.27792386719372025
-0.20562640062499032
-0.14707744036760592
-0.100829536508731
-0.0654357200894602
-0.039448883709801534
-0.02142189245681952
-0.009907554745785078
-0.0034586448630650477
-0.0006279122431748847
3.1908618377106086e-5
-3.1908618385535093e-5
0.0006279122431661706
0.003458644863055738
0.00990755474577579
0.021421892456810726
0.03944888370978831
0.06543572008945286
0.10082953650873562
0.14707744036764356
0.20562640062502544
0.27792386719373674
0.3654162704251605
0.4695569469136311
0.5917816970977728
0.7336075554904008
0.8962625765731538
-1.0700313713986276
-1.3072981379414825
-0.863183563648458
-0.6849111302026385
-0.5330143849699794
-0.40539751673166863
-0.2999430616283082
-0.21454175225618016
-0.14708271166975265
-0.0954554757384675
-0.057549317429534806
-0.03125343552177119
-0.014456941936237073
-0.005048900403098015
-0.0009183423659241273
4.571915383051614e-5
-4.5719153839041414e-5
0.000918342365915041
0.005048900403088796
0.014456941936225789
0.03125343552175872
0.05754931742952307
0.09545547573844204
0.14708271166974488
0.21454175225621147
0.29994306162831885
0.40539751673165125
0.5330143849700577
0.6849111302026588
0.8631835636484712
1.0700313713988194
1.307298137940922
-1.4959301732297798
-1.8276597731589599
-1.2067714770446039
-0.9575453575176754
-0.7451906905775021
-0.5667767808976197
-0.41934601956767853
-0.2999500613687038
-0.20563812296706804
-0.13345972664157116
-0.08046398637876274
-0.04369989541017493
-0.020216330997362537
-0.007062110292247654
-0.0012860122007778984
6.32052502250324e-5
-6.320525023353565e-5
0.001286012200768692
0.0070621102922379135
0.020216330997350308
0.043699895410165265
0.08046398637874441
0.1334597266415424
0.20563812296704953
0.29995006136877034
0.4193460195677323
0.5667767808976036
0.7451906905776036
0.9575453575177344
1.2067714770445004
1.495930173230069
1.8276597731587763
-2.021825695827908
-2.470206794312787
-1.6310384325639693
-1.2941991625600306
-1.0071901172071864
-0.7660506619906262
-0.5667865833821013
-0.4054133614994809
-0.2779430275232815
-0.18038777365283878
-0.1087592355869786
-0.059068887387702516
-0.027328063003982304
-0.00954802810303467
-0.001740006503616742
8.479988161017027e-5
-8.479988161859096e-5
0.0017400065036076453
0.009548028103023994
0.027328063003969567
0.0590688873876889
0.10875923558695332
0.18038777365281947
0.27794302752322586
0.4054133614994568
0.5667865833821369
0.7660506619906357
1.0071901172072049
1.2941991625601768
1.6310384325639407
2.0218256958280625
2.4702067943128565
-2.6582423022752497
-3.2477911024147974
-2.14448073937863
-1.7016147284968857
-1.324259088659259
-1.0072092226002736
-0.7452167937297419
-0.533043167929826
-0.36544503689527247
-0.23717914792697065
-0.14300154839519452
-0.0776681013494853
-0.035934512920738855
-0.012556418643910047
-0.0022894115654869276
0.00011093637854584457
-0.00011093637855390129
0.002289411565477686
0.012556418643899172
0.03593451292072311
0.07766810134946543
0.14300154839518384
0.2371791479269263
0.3654450368952124
0.5330431679298068
0.7452167937298085
1.0072092226002392
1.3242590886593444
1.7016147284969758
2.1444807393786425
2.658242302275101
3.2477911024148307
-3.415679500222313
-4.173256797441175
-2.755595958585643
-2.1865265699138927
-1.7016398133351696
-1.2942384320883304
-0.9575858970171626
-0.6849489188203612
-0.4695903671411697
-0.30477246861004387
-0.18375686155485724
-0.09980492983192042
-0.04617791839711399
-0.016136998635193918
-0.002943304868877023
0.00014204768126410664
-0.00014204768127171338
0.002943304868868392
0.016136998635183142
0.04617791839710178
0.09980492983190525
0.1837568615548208
0.3047724686099817
0.4695903671411162
0.6849489188203187
0.957585897017238
1.2942384320881617
1.7016398133353412
2.1865265699141028
2.755595958585839
3.415679500222722
4.173256797439914
-4.304717640586228
-5.259358990950892
-3.4729085134890285
-2.7556961695705082
-2.1445923068252006
-1.6311385804995104
-1.206853509414264
-0.8632475561392311
-0.5918303614729541
-0.3841096903265289
-0.23159312010894745
-0.1257878552511489
-0.05820101946311037
-0.020339658751774
-0.0037107942369463335
0.00017856894849412692
-0.00017856894850083502
0.0037107942369379123
0.020339658751765865
0.05820101946309369
0.12578785525112643
0.23159312010890612
0.3841096903264346
0.5918303614728353
0.8632475561392389
1.2068535094141897
1.6311385804994332
2.144592306824997
2.755696169570636
3.4729085134895312
4.304717640586105